 Entering Gaussian System, Link 0=g09
 Initial command:
 /public/software/g09/g09/l1.exe /tmp/Gau-6888.inp -scrdir=/tmp/
 Entering Link 1 = /public/software/g09/g09/l1.exe PID=      6889.
  
 Copyright (c) 1988,1990,1992,1993,1995,1998,2003,2009,2010,
            Gaussian, Inc.  All Rights Reserved.
  
 This is part of the Gaussian(R) 09 program.  It is based on
 the Gaussian(R) 03 system (copyright 2003, Gaussian, Inc.),
 the Gaussian(R) 98 system (copyright 1998, Gaussian, Inc.),
 the Gaussian(R) 94 system (copyright 1995, Gaussian, Inc.),
 the Gaussian 92(TM) system (copyright 1992, Gaussian, Inc.),
 the Gaussian 90(TM) system (copyright 1990, Gaussian, Inc.),
 the Gaussian 88(TM) system (copyright 1988, Gaussian, Inc.),
 the Gaussian 86(TM) system (copyright 1986, Carnegie Mellon
 University), and the Gaussian 82(TM) system (copyright 1983,
 Carnegie Mellon University). Gaussian is a federally registered
 trademark of Gaussian, Inc.
  
 This software contains proprietary and confidential information,
 including trade secrets, belonging to Gaussian, Inc.
  
 This software is provided under written license and may be
 used, copied, transmitted, or stored only in accord with that
 written license.
  
 The following legend is applicable only to US Government
 contracts under FAR:
  
                    RESTRICTED RIGHTS LEGEND
  
 Use, reproduction and disclosure by the US Government is
 subject to restrictions as set forth in subparagraphs (a)
 and (c) of the Commercial Computer Software - Restricted
 Rights clause in FAR 52.227-19.
  
 Gaussian, Inc.
 340 Quinnipiac St., Bldg. 40, Wallingford CT 06492
  
  
 ---------------------------------------------------------------
 Warning -- This program may not be used in any manner that
 competes with the business of Gaussian, Inc. or will provide
 assistance to any competitor of Gaussian, Inc.  The licensee
 of this program is prohibited from giving any competitor of
 Gaussian, Inc. access to this program.  By using this program,
 the user acknowledges that Gaussian, Inc. is engaged in the
 business of creating and licensing software in the field of
 computational chemistry and represents and warrants to the
 licensee that it is not a competitor of Gaussian, Inc. and that
 it will not use this program in any manner prohibited above.
 ---------------------------------------------------------------
  

 Cite this work as:
 Gaussian 09, Revision B.01,
 M. J. Frisch, G. W. Trucks, H. B. Schlegel, G. E. Scuseria, 
 M. A. Robb, J. R. Cheeseman, G. Scalmani, V. Barone, B. Mennucci, 
 G. A. Petersson, H. Nakatsuji, M. Caricato, X. Li, H. P. Hratchian, 
 A. F. Izmaylov, J. Bloino, G. Zheng, J. L. Sonnenberg, M. Hada, 
 M. Ehara, K. Toyota, R. Fukuda, J. Hasegawa, M. Ishida, T. Nakajima, 
 Y. Honda, O. Kitao, H. Nakai, T. Vreven, J. A. Montgomery, Jr., 
 J. E. Peralta, F. Ogliaro, M. Bearpark, J. J. Heyd, E. Brothers, 
 K. N. Kudin, V. N. Staroverov, T. Keith, R. Kobayashi, J. Normand, 
 K. Raghavachari, A. Rendell, J. C. Burant, S. S. Iyengar, J. Tomasi, 
 M. Cossi, N. Rega, J. M. Millam, M. Klene, J. E. Knox, J. B. Cross, 
 V. Bakken, C. Adamo, J. Jaramillo, R. Gomperts, R. E. Stratmann, 
 O. Yazyev, A. J. Austin, R. Cammi, C. Pomelli, J. W. Ochterski, 
 R. L. Martin, K. Morokuma, V. G. Zakrzewski, G. A. Voth, 
 P. Salvador, J. J. Dannenberg, S. Dapprich, A. D. Daniels, 
 O. Farkas, J. B. Foresman, J. V. Ortiz, J. Cioslowski, 
 and D. J. Fox, Gaussian, Inc., Wallingford CT, 2010.
 
 ******************************************
 Gaussian 09:  EM64L-G09RevB.01 12-Aug-2010
                24-Mar-2021 
 ******************************************
 %mem=600MW
 %nprocshared=10
 Will use up to   10 processors via shared memory.
 ---------------------------------------
 # opt rb3lyp/6-31g(d) geom=connectivity
 ---------------------------------------
 1/14=-1,18=20,19=15,26=3,38=1,57=2/1,3;
 2/9=110,12=2,17=6,18=5,40=1/2;
 3/5=1,6=6,7=1,11=2,16=1,25=1,30=1,71=1,74=-5,116=1/1,2,3;
 4//1;
 5/5=2,38=5/2;
 6/7=2,8=2,9=2,10=2,28=1/1;
 7//1,2,3,16;
 1/14=-1,18=20,19=15/3(2);
 2/9=110/2;
 99//99;
 2/9=110/2;
 3/5=1,6=6,7=1,11=2,16=1,25=1,30=1,71=1,74=-5,116=1/1,2,3;
 4/5=5,16=3/1;
 5/5=2,38=5/2;
 7//1,2,3,16;
 1/14=-1,18=20,19=15/3(-5);
 2/9=110/2;
 6/7=2,8=2,9=2,10=2,19=2,28=1/1;
 99/9=1/99;
 -------------------
 Title Card Required
 -------------------
 Symbolic Z-matrix:
 Charge =  0 Multiplicity = 1
 C                     0.        0.        0. 
 C                     1.3398    0.        0. 
 C                     2.1408    1.2774    0. 
 C                     1.3502    2.5965   -0.2372 
 C                    -0.1731    2.5153   -0.4901 
 C                    -0.8471    1.2273    0.0321 
 C                     2.1079    3.3082   -1.3774 
 C                     1.647     2.9788   -2.7544 
 C                     0.3809    2.6626   -3.0399 
 C                    -0.6145    2.7097   -1.9495 
 C                     0.0019    2.2461   -4.4077 
 O                    -0.4062    1.1001   -4.597 
 C                     0.1055    3.2801   -5.5238 
 C                     0.8969    2.6842   -6.6975 
 C                    -1.3053    3.7101   -5.9193 
 O                    -1.798     2.9151   -2.2278 
 C                     3.5056    2.7313   -1.4291 
 C                     3.9158    2.969    -2.8976 
 O                     2.6907    2.858    -3.6671 
 C                     3.2587    1.2624   -1.0586 
 O                     2.105     4.7155   -1.2139 
 C                    -0.6891    3.7196    0.311 
 C                     0.2491    3.74      1.5031 
 O                     1.5402    3.4325    0.9581 
 C                     0.2799    5.0376    2.2709 
 C                     0.9119    6.2424    1.6332 
 C                    -0.244     5.1199    3.5068 
 C                     4.5028    4.3699   -3.1338 
 C                     4.9147    1.936    -3.4306 
 H                     4.1973    3.2031   -0.7218 
 H                     2.6288    1.3401    0.9838 
 C                     2.106    -1.2951    0.0815 
 H                    -0.5387   -0.946     0.038 
 H                    -1.1887    1.3464    1.0679 
 H                    -1.7574    1.0138   -0.5432 
 H                     0.64      4.1598   -5.1451 
 H                     1.8269    2.2393   -6.3219 
 H                     0.3319    1.8661   -7.1614 
 H                    -1.2834    4.5315   -6.6417 
 H                    -1.8671    4.0542   -5.0438 
 H                    -1.8659    2.8795   -6.3622 
 H                     4.1737    0.7984   -0.6728 
 H                     2.9419    0.6738   -1.9285 
 H                     2.2728    4.857    -0.2611 
 H                    -1.7397    3.632     0.6104 
 H                    -0.5994    4.6373   -0.2837 
 H                     0.0018    2.9182    2.1873 
 H                     1.9886    6.0901    1.513 
 H                     0.4707    6.4465    0.6536 
 H                     0.7782    7.1445    2.2406 
 H                    -0.7045    4.2637    3.9904 
 H                    -0.2256    6.0471    4.072 
 H                     3.7865    5.1669   -2.9179 
 H                     4.7729    4.501    -4.1885 
 H                     5.3994    4.5324   -2.5269 
 H                     5.824     1.9093   -2.8215 
 H                     5.1991    2.1697   -4.4635 
 H                     4.4857    0.9301   -3.471 
 H                     1.445    -2.1565    0.2259 
 H                     2.6762   -1.4693   -0.8359 
 H                     2.8014   -1.2708    0.9269 
 C                     1.2527    3.7119   -7.7615 
 H                     1.8118    4.5475   -7.3289 
 H                     0.3587    4.109    -8.251 
 H                     1.8771    3.2514   -8.534 
 

 GradGradGradGradGradGradGradGradGradGradGradGradGradGradGradGradGradGrad
 Berny optimization.
 Initialization pass.
                           ----------------------------
                           !    Initial Parameters    !
                           ! (Angstroms and Degrees)  !
 --------------------------                            --------------------------
 ! Name  Definition              Value          Derivative Info.                !
 --------------------------------------------------------------------------------
 ! R1    R(1,2)                  1.3398         estimate D2E/DX2                !
 ! R2    R(1,6)                  1.4916         estimate D2E/DX2                !
 ! R3    R(1,33)                 1.0893         estimate D2E/DX2                !
 ! R4    R(2,3)                  1.5078         estimate D2E/DX2                !
 ! R5    R(2,32)                 1.507          estimate D2E/DX2                !
 ! R6    R(3,4)                  1.5561         estimate D2E/DX2                !
 ! R7    R(3,20)                 1.5397         estimate D2E/DX2                !
 ! R8    R(3,31)                 1.1            estimate D2E/DX2                !
 ! R9    R(4,5)                  1.5463         estimate D2E/DX2                !
 ! R10   R(4,7)                  1.5429         estimate D2E/DX2                !
 ! R11   R(4,24)                 1.471          estimate D2E/DX2                !
 ! R12   R(5,6)                  1.5446         estimate D2E/DX2                !
 ! R13   R(5,10)                 1.537          estimate D2E/DX2                !
 ! R14   R(5,22)                 1.5357         estimate D2E/DX2                !
 ! R15   R(6,34)                 1.0972         estimate D2E/DX2                !
 ! R16   R(6,35)                 1.0978         estimate D2E/DX2                !
 ! R17   R(7,8)                  1.489          estimate D2E/DX2                !
 ! R18   R(7,17)                 1.513          estimate D2E/DX2                !
 ! R19   R(7,21)                 1.4168         estimate D2E/DX2                !
 ! R20   R(8,9)                  1.3359         estimate D2E/DX2                !
 ! R21   R(8,19)                 1.3917         estimate D2E/DX2                !
 ! R22   R(9,10)                 1.4772         estimate D2E/DX2                !
 ! R23   R(9,11)                 1.4792         estimate D2E/DX2                !
 ! R24   R(10,16)                1.233          estimate D2E/DX2                !
 ! R25   R(11,12)                1.2311         estimate D2E/DX2                !
 ! R26   R(11,13)                1.525          estimate D2E/DX2                !
 ! R27   R(13,14)                1.5359         estimate D2E/DX2                !
 ! R28   R(13,15)                1.527          estimate D2E/DX2                !
 ! R29   R(13,36)                1.0968         estimate D2E/DX2                !
 ! R30   R(14,37)                1.0972         estimate D2E/DX2                !
 ! R31   R(14,38)                1.0971         estimate D2E/DX2                !
 ! R32   R(14,62)                1.5215         estimate D2E/DX2                !
 ! R33   R(15,39)                1.0941         estimate D2E/DX2                !
 ! R34   R(15,40)                1.0957         estimate D2E/DX2                !
 ! R35   R(15,41)                1.0956         estimate D2E/DX2                !
 ! R36   R(17,18)                1.5431         estimate D2E/DX2                !
 ! R37   R(17,20)                1.5349         estimate D2E/DX2                !
 ! R38   R(17,30)                1.096          estimate D2E/DX2                !
 ! R39   R(18,19)                1.451          estimate D2E/DX2                !
 ! R40   R(18,28)                1.5372         estimate D2E/DX2                !
 ! R41   R(18,29)                1.5326         estimate D2E/DX2                !
 ! R42   R(20,42)                1.0961         estimate D2E/DX2                !
 ! R43   R(20,43)                1.0971         estimate D2E/DX2                !
 ! R44   R(21,44)                0.9778         estimate D2E/DX2                !
 ! R45   R(22,23)                1.5171         estimate D2E/DX2                !
 ! R46   R(22,45)                1.0959         estimate D2E/DX2                !
 ! R47   R(22,46)                1.0972         estimate D2E/DX2                !
 ! R48   R(23,24)                1.4348         estimate D2E/DX2                !
 ! R49   R(23,25)                1.5081         estimate D2E/DX2                !
 ! R50   R(23,47)                1.0976         estimate D2E/DX2                !
 ! R51   R(25,26)                1.5025         estimate D2E/DX2                !
 ! R52   R(25,27)                1.3449         estimate D2E/DX2                !
 ! R53   R(26,48)                1.094          estimate D2E/DX2                !
 ! R54   R(26,49)                1.0936         estimate D2E/DX2                !
 ! R55   R(26,50)                1.0957         estimate D2E/DX2                !
 ! R56   R(27,51)                1.0858         estimate D2E/DX2                !
 ! R57   R(27,52)                1.086          estimate D2E/DX2                !
 ! R58   R(28,53)                1.0931         estimate D2E/DX2                !
 ! R59   R(28,54)                1.0966         estimate D2E/DX2                !
 ! R60   R(28,55)                1.0948         estimate D2E/DX2                !
 ! R61   R(29,56)                1.0948         estimate D2E/DX2                !
 ! R62   R(29,57)                1.0965         estimate D2E/DX2                !
 ! R63   R(29,58)                1.0943         estimate D2E/DX2                !
 ! R64   R(32,59)                1.0953         estimate D2E/DX2                !
 ! R65   R(32,60)                1.0941         estimate D2E/DX2                !
 ! R66   R(32,61)                1.0949         estimate D2E/DX2                !
 ! R67   R(62,63)                1.0945         estimate D2E/DX2                !
 ! R68   R(62,64)                1.0939         estimate D2E/DX2                !
 ! R69   R(62,65)                1.0948         estimate D2E/DX2                !
 ! A1    A(2,1,6)              124.6048         estimate D2E/DX2                !
 ! A2    A(2,1,33)             119.6395         estimate D2E/DX2                !
 ! A3    A(6,1,33)             115.6557         estimate D2E/DX2                !
 ! A4    A(1,2,3)              122.09           estimate D2E/DX2                !
 ! A5    A(1,2,32)             120.5596         estimate D2E/DX2                !
 ! A6    A(3,2,32)             117.2576         estimate D2E/DX2                !
 ! A7    A(2,3,4)              116.6335         estimate D2E/DX2                !
 ! A8    A(2,3,20)             112.1771         estimate D2E/DX2                !
 ! A9    A(2,3,31)             106.4979         estimate D2E/DX2                !
 ! A10   A(4,3,20)             105.8041         estimate D2E/DX2                !
 ! A11   A(4,3,31)             108.2656         estimate D2E/DX2                !
 ! A12   A(20,3,31)            107.0601         estimate D2E/DX2                !
 ! A13   A(3,4,5)              118.7468         estimate D2E/DX2                !
 ! A14   A(3,4,7)              104.7239         estimate D2E/DX2                !
 ! A15   A(3,4,24)             106.9951         estimate D2E/DX2                !
 ! A16   A(5,4,7)              112.7763         estimate D2E/DX2                !
 ! A17   A(5,4,24)             106.8576         estimate D2E/DX2                !
 ! A18   A(7,4,24)             105.9565         estimate D2E/DX2                !
 ! A19   A(4,5,6)              114.7309         estimate D2E/DX2                !
 ! A20   A(4,5,10)             115.5665         estimate D2E/DX2                !
 ! A21   A(4,5,22)             101.8009         estimate D2E/DX2                !
 ! A22   A(6,5,10)             107.5268         estimate D2E/DX2                !
 ! A23   A(6,5,22)             109.3258         estimate D2E/DX2                !
 ! A24   A(10,5,22)            107.4353         estimate D2E/DX2                !
 ! A25   A(1,6,5)              115.532          estimate D2E/DX2                !
 ! A26   A(1,6,34)             106.6458         estimate D2E/DX2                !
 ! A27   A(1,6,35)             107.4344         estimate D2E/DX2                !
 ! A28   A(5,6,34)             111.3771         estimate D2E/DX2                !
 ! A29   A(5,6,35)             110.2928         estimate D2E/DX2                !
 ! A30   A(34,6,35)            104.9322         estimate D2E/DX2                !
 ! A31   A(4,7,8)              115.4264         estimate D2E/DX2                !
 ! A32   A(4,7,17)             107.6399         estimate D2E/DX2                !
 ! A33   A(4,7,21)             111.8324         estimate D2E/DX2                !
 ! A34   A(8,7,17)              99.788          estimate D2E/DX2                !
 ! A35   A(8,7,21)             109.0163         estimate D2E/DX2                !
 ! A36   A(17,7,21)            112.6184         estimate D2E/DX2                !
 ! A37   A(7,8,9)              122.9147         estimate D2E/DX2                !
 ! A38   A(7,8,19)             113.1755         estimate D2E/DX2                !
 ! A39   A(9,8,19)             123.3715         estimate D2E/DX2                !
 ! A40   A(8,9,10)             118.2528         estimate D2E/DX2                !
 ! A41   A(8,9,11)             120.4722         estimate D2E/DX2                !
 ! A42   A(10,9,11)            121.2589         estimate D2E/DX2                !
 ! A43   A(5,10,9)             120.2211         estimate D2E/DX2                !
 ! A44   A(5,10,16)            120.7319         estimate D2E/DX2                !
 ! A45   A(9,10,16)            119.0454         estimate D2E/DX2                !
 ! A46   A(9,11,12)            119.2892         estimate D2E/DX2                !
 ! A47   A(9,11,13)            117.9331         estimate D2E/DX2                !
 ! A48   A(12,11,13)           122.7612         estimate D2E/DX2                !
 ! A49   A(11,13,14)           109.343          estimate D2E/DX2                !
 ! A50   A(11,13,15)           108.5259         estimate D2E/DX2                !
 ! A51   A(11,13,36)           108.9192         estimate D2E/DX2                !
 ! A52   A(14,13,15)           112.7923         estimate D2E/DX2                !
 ! A53   A(14,13,36)           108.9009         estimate D2E/DX2                !
 ! A54   A(15,13,36)           108.2893         estimate D2E/DX2                !
 ! A55   A(13,14,37)           109.4183         estimate D2E/DX2                !
 ! A56   A(13,14,38)           110.3081         estimate D2E/DX2                !
 ! A57   A(13,14,62)           113.1312         estimate D2E/DX2                !
 ! A58   A(37,14,38)           106.1933         estimate D2E/DX2                !
 ! A59   A(37,14,62)           108.3647         estimate D2E/DX2                !
 ! A60   A(38,14,62)           109.1722         estimate D2E/DX2                !
 ! A61   A(13,15,39)           111.3422         estimate D2E/DX2                !
 ! A62   A(13,15,40)           110.806          estimate D2E/DX2                !
 ! A63   A(13,15,41)           111.3441         estimate D2E/DX2                !
 ! A64   A(39,15,40)           107.5822         estimate D2E/DX2                !
 ! A65   A(39,15,41)           108.2096         estimate D2E/DX2                !
 ! A66   A(40,15,41)           107.3823         estimate D2E/DX2                !
 ! A67   A(7,17,18)            102.6712         estimate D2E/DX2                !
 ! A68   A(7,17,20)            102.0086         estimate D2E/DX2                !
 ! A69   A(7,17,30)            113.3797         estimate D2E/DX2                !
 ! A70   A(18,17,20)           114.8273         estimate D2E/DX2                !
 ! A71   A(18,17,30)           112.3365         estimate D2E/DX2                !
 ! A72   A(20,17,30)           110.9586         estimate D2E/DX2                !
 ! A73   A(17,18,19)           105.5726         estimate D2E/DX2                !
 ! A74   A(17,18,28)           112.8376         estimate D2E/DX2                !
 ! A75   A(17,18,29)           113.6017         estimate D2E/DX2                !
 ! A76   A(19,18,28)           108.0986         estimate D2E/DX2                !
 ! A77   A(19,18,29)           108.3186         estimate D2E/DX2                !
 ! A78   A(28,18,29)           108.1756         estimate D2E/DX2                !
 ! A79   A(8,19,18)            106.1858         estimate D2E/DX2                !
 ! A80   A(3,20,17)            105.8688         estimate D2E/DX2                !
 ! A81   A(3,20,42)            111.6071         estimate D2E/DX2                !
 ! A82   A(3,20,43)            109.9223         estimate D2E/DX2                !
 ! A83   A(17,20,42)           110.8431         estimate D2E/DX2                !
 ! A84   A(17,20,43)           111.6235         estimate D2E/DX2                !
 ! A85   A(42,20,43)           107.0402         estimate D2E/DX2                !
 ! A86   A(7,21,44)            104.8245         estimate D2E/DX2                !
 ! A87   A(5,22,23)            102.2777         estimate D2E/DX2                !
 ! A88   A(5,22,45)            113.6991         estimate D2E/DX2                !
 ! A89   A(5,22,46)            110.224          estimate D2E/DX2                !
 ! A90   A(23,22,45)           112.286          estimate D2E/DX2                !
 ! A91   A(23,22,46)           111.351          estimate D2E/DX2                !
 ! A92   A(45,22,46)           107.0554         estimate D2E/DX2                !
 ! A93   A(22,23,24)           104.7811         estimate D2E/DX2                !
 ! A94   A(22,23,25)           115.1033         estimate D2E/DX2                !
 ! A95   A(22,23,47)           109.9024         estimate D2E/DX2                !
 ! A96   A(24,23,25)           111.0653         estimate D2E/DX2                !
 ! A97   A(24,23,47)           106.2052         estimate D2E/DX2                !
 ! A98   A(25,23,47)           109.3585         estimate D2E/DX2                !
 ! A99   A(4,24,23)            108.3151         estimate D2E/DX2                !
 ! A100  A(23,25,26)           118.8455         estimate D2E/DX2                !
 ! A101  A(23,25,27)           120.8356         estimate D2E/DX2                !
 ! A102  A(26,25,27)           120.3187         estimate D2E/DX2                !
 ! A103  A(25,26,48)           110.4237         estimate D2E/DX2                !
 ! A104  A(25,26,49)           111.1083         estimate D2E/DX2                !
 ! A105  A(25,26,50)           111.9353         estimate D2E/DX2                !
 ! A106  A(48,26,49)           108.9422         estimate D2E/DX2                !
 ! A107  A(48,26,50)           107.1936         estimate D2E/DX2                !
 ! A108  A(49,26,50)           107.0782         estimate D2E/DX2                !
 ! A109  A(25,27,51)           121.752          estimate D2E/DX2                !
 ! A110  A(25,27,52)           121.594          estimate D2E/DX2                !
 ! A111  A(51,27,52)           116.6539         estimate D2E/DX2                !
 ! A112  A(18,28,53)           112.5749         estimate D2E/DX2                !
 ! A113  A(18,28,54)           110.5362         estimate D2E/DX2                !
 ! A114  A(18,28,55)           111.2737         estimate D2E/DX2                !
 ! A115  A(53,28,54)           105.3192         estimate D2E/DX2                !
 ! A116  A(53,28,55)           108.5986         estimate D2E/DX2                !
 ! A117  A(54,28,55)           108.2824         estimate D2E/DX2                !
 ! A118  A(18,29,56)           111.3635         estimate D2E/DX2                !
 ! A119  A(18,29,57)           110.6696         estimate D2E/DX2                !
 ! A120  A(18,29,58)           112.1408         estimate D2E/DX2                !
 ! A121  A(56,29,57)           108.2919         estimate D2E/DX2                !
 ! A122  A(56,29,58)           108.8888         estimate D2E/DX2                !
 ! A123  A(57,29,58)           105.2369         estimate D2E/DX2                !
 ! A124  A(2,32,59)            112.0959         estimate D2E/DX2                !
 ! A125  A(2,32,60)            110.8825         estimate D2E/DX2                !
 ! A126  A(2,32,61)            110.2181         estimate D2E/DX2                !
 ! A127  A(59,32,60)           107.4469         estimate D2E/DX2                !
 ! A128  A(59,32,61)           107.3934         estimate D2E/DX2                !
 ! A129  A(60,32,61)           108.6594         estimate D2E/DX2                !
 ! A130  A(14,62,63)           111.0225         estimate D2E/DX2                !
 ! A131  A(14,62,64)           111.5327         estimate D2E/DX2                !
 ! A132  A(14,62,65)           110.0409         estimate D2E/DX2                !
 ! A133  A(63,62,64)           108.4941         estimate D2E/DX2                !
 ! A134  A(63,62,65)           107.9785         estimate D2E/DX2                !
 ! A135  A(64,62,65)           107.641          estimate D2E/DX2                !
 ! D1    D(6,1,2,3)             -1.4982         estimate D2E/DX2                !
 ! D2    D(6,1,2,32)           174.9009         estimate D2E/DX2                !
 ! D3    D(33,1,2,3)          -177.6997         estimate D2E/DX2                !
 ! D4    D(33,1,2,32)           -1.3006         estimate D2E/DX2                !
 ! D5    D(2,1,6,5)             23.4965         estimate D2E/DX2                !
 ! D6    D(2,1,6,34)          -100.8666         estimate D2E/DX2                !
 ! D7    D(2,1,6,35)           147.0602         estimate D2E/DX2                !
 ! D8    D(33,1,6,5)          -160.1659         estimate D2E/DX2                !
 ! D9    D(33,1,6,34)           75.471          estimate D2E/DX2                !
 ! D10   D(33,1,6,35)          -36.6021         estimate D2E/DX2                !
 ! D11   D(1,2,3,4)             -9.8187         estimate D2E/DX2                !
 ! D12   D(1,2,3,20)          -132.0568         estimate D2E/DX2                !
 ! D13   D(1,2,3,31)           111.1261         estimate D2E/DX2                !
 ! D14   D(32,2,3,4)           173.6692         estimate D2E/DX2                !
 ! D15   D(32,2,3,20)           51.4311         estimate D2E/DX2                !
 ! D16   D(32,2,3,31)          -65.386          estimate D2E/DX2                !
 ! D17   D(1,2,32,59)           -5.0884         estimate D2E/DX2                !
 ! D18   D(1,2,32,60)          114.9925         estimate D2E/DX2                !
 ! D19   D(1,2,32,61)         -124.6478         estimate D2E/DX2                !
 ! D20   D(3,2,32,59)          171.48           estimate D2E/DX2                !
 ! D21   D(3,2,32,60)          -68.4391         estimate D2E/DX2                !
 ! D22   D(3,2,32,61)           51.9207         estimate D2E/DX2                !
 ! D23   D(2,3,4,5)             -1.5416         estimate D2E/DX2                !
 ! D24   D(2,3,4,7)           -128.4616         estimate D2E/DX2                !
 ! D25   D(2,3,4,24)           119.357          estimate D2E/DX2                !
 ! D26   D(20,3,4,5)           123.9662         estimate D2E/DX2                !
 ! D27   D(20,3,4,7)            -2.9538         estimate D2E/DX2                !
 ! D28   D(20,3,4,24)         -115.1352         estimate D2E/DX2                !
 ! D29   D(31,3,4,5)          -121.5459         estimate D2E/DX2                !
 ! D30   D(31,3,4,7)           111.5341         estimate D2E/DX2                !
 ! D31   D(31,3,4,24)           -0.6473         estimate D2E/DX2                !
 ! D32   D(2,3,20,17)          152.9128         estimate D2E/DX2                !
 ! D33   D(2,3,20,42)          -86.3931         estimate D2E/DX2                !
 ! D34   D(2,3,20,43)           32.2142         estimate D2E/DX2                !
 ! D35   D(4,3,20,17)           24.7068         estimate D2E/DX2                !
 ! D36   D(4,3,20,42)          145.4009         estimate D2E/DX2                !
 ! D37   D(4,3,20,43)          -95.9917         estimate D2E/DX2                !
 ! D38   D(31,3,20,17)         -90.608          estimate D2E/DX2                !
 ! D39   D(31,3,20,42)          30.0862         estimate D2E/DX2                !
 ! D40   D(31,3,20,43)         148.6935         estimate D2E/DX2                !
 ! D41   D(3,4,5,6)             22.0852         estimate D2E/DX2                !
 ! D42   D(3,4,5,10)          -103.9231         estimate D2E/DX2                !
 ! D43   D(3,4,5,22)           140.0194         estimate D2E/DX2                !
 ! D44   D(7,4,5,6)            145.0911         estimate D2E/DX2                !
 ! D45   D(7,4,5,10)            19.0828         estimate D2E/DX2                !
 ! D46   D(7,4,5,22)           -96.9747         estimate D2E/DX2                !
 ! D47   D(24,4,5,6)           -98.8832         estimate D2E/DX2                !
 ! D48   D(24,4,5,10)          135.1085         estimate D2E/DX2                !
 ! D49   D(24,4,5,22)           19.051          estimate D2E/DX2                !
 ! D50   D(3,4,7,8)             90.1038         estimate D2E/DX2                !
 ! D51   D(3,4,7,17)           -20.3037         estimate D2E/DX2                !
 ! D52   D(3,4,7,21)          -144.5077         estimate D2E/DX2                !
 ! D53   D(5,4,7,8)            -40.4124         estimate D2E/DX2                !
 ! D54   D(5,4,7,17)          -150.8199         estimate D2E/DX2                !
 ! D55   D(5,4,7,21)            84.9761         estimate D2E/DX2                !
 ! D56   D(24,4,7,8)          -156.9751         estimate D2E/DX2                !
 ! D57   D(24,4,7,17)           92.6175         estimate D2E/DX2                !
 ! D58   D(24,4,7,21)          -31.5866         estimate D2E/DX2                !
 ! D59   D(3,4,24,23)         -122.5996         estimate D2E/DX2                !
 ! D60   D(5,4,24,23)            5.5776         estimate D2E/DX2                !
 ! D61   D(7,4,24,23)          126.0662         estimate D2E/DX2                !
 ! D62   D(4,5,6,1)            -32.2608         estimate D2E/DX2                !
 ! D63   D(4,5,6,34)            89.6018         estimate D2E/DX2                !
 ! D64   D(4,5,6,35)          -154.3093         estimate D2E/DX2                !
 ! D65   D(10,5,6,1)            97.8098         estimate D2E/DX2                !
 ! D66   D(10,5,6,34)         -140.3276         estimate D2E/DX2                !
 ! D67   D(10,5,6,35)          -24.2386         estimate D2E/DX2                !
 ! D68   D(22,5,6,1)          -145.8478         estimate D2E/DX2                !
 ! D69   D(22,5,6,34)          -23.9852         estimate D2E/DX2                !
 ! D70   D(22,5,6,35)           92.1037         estimate D2E/DX2                !
 ! D71   D(4,5,10,9)            13.2737         estimate D2E/DX2                !
 ! D72   D(4,5,10,16)         -166.2591         estimate D2E/DX2                !
 ! D73   D(6,5,10,9)          -116.3267         estimate D2E/DX2                !
 ! D74   D(6,5,10,16)           64.1405         estimate D2E/DX2                !
 ! D75   D(22,5,10,9)          126.0959         estimate D2E/DX2                !
 ! D76   D(22,5,10,16)         -53.437          estimate D2E/DX2                !
 ! D77   D(4,5,22,23)          -35.1654         estimate D2E/DX2                !
 ! D78   D(4,5,22,45)         -156.4559         estimate D2E/DX2                !
 ! D79   D(4,5,22,46)           83.3411         estimate D2E/DX2                !
 ! D80   D(6,5,22,23)           86.5825         estimate D2E/DX2                !
 ! D81   D(6,5,22,45)          -34.7081         estimate D2E/DX2                !
 ! D82   D(6,5,22,46)         -154.911          estimate D2E/DX2                !
 ! D83   D(10,5,22,23)        -157.0171         estimate D2E/DX2                !
 ! D84   D(10,5,22,45)          81.6923         estimate D2E/DX2                !
 ! D85   D(10,5,22,46)         -38.5106         estimate D2E/DX2                !
 ! D86   D(4,7,8,9)             30.9841         estimate D2E/DX2                !
 ! D87   D(4,7,8,19)          -140.8524         estimate D2E/DX2                !
 ! D88   D(17,7,8,9)           145.9768         estimate D2E/DX2                !
 ! D89   D(17,7,8,19)          -25.8597         estimate D2E/DX2                !
 ! D90   D(21,7,8,9)           -95.8423         estimate D2E/DX2                !
 ! D91   D(21,7,8,19)           92.3212         estimate D2E/DX2                !
 ! D92   D(4,7,17,18)          154.3796         estimate D2E/DX2                !
 ! D93   D(4,7,17,20)           35.1822         estimate D2E/DX2                !
 ! D94   D(4,7,17,30)          -84.1825         estimate D2E/DX2                !
 ! D95   D(8,7,17,18)           33.5793         estimate D2E/DX2                !
 ! D96   D(8,7,17,20)          -85.618          estimate D2E/DX2                !
 ! D97   D(8,7,17,30)          155.0172         estimate D2E/DX2                !
 ! D98   D(21,7,17,18)         -81.8931         estimate D2E/DX2                !
 ! D99   D(21,7,17,20)         158.9095         estimate D2E/DX2                !
 ! D100  D(21,7,17,30)          39.5448         estimate D2E/DX2                !
 ! D101  D(4,7,21,44)           42.2518         estimate D2E/DX2                !
 ! D102  D(8,7,21,44)          171.1029         estimate D2E/DX2                !
 ! D103  D(17,7,21,44)         -79.1182         estimate D2E/DX2                !
 ! D104  D(7,8,9,10)             3.1626         estimate D2E/DX2                !
 ! D105  D(7,8,9,11)          -175.3967         estimate D2E/DX2                !
 ! D106  D(19,8,9,10)          174.1697         estimate D2E/DX2                !
 ! D107  D(19,8,9,11)           -4.3897         estimate D2E/DX2                !
 ! D108  D(7,8,19,18)            5.7445         estimate D2E/DX2                !
 ! D109  D(9,8,19,18)         -166.049          estimate D2E/DX2                !
 ! D110  D(8,9,10,5)           -26.1172         estimate D2E/DX2                !
 ! D111  D(8,9,10,16)          153.4235         estimate D2E/DX2                !
 ! D112  D(11,9,10,5)          152.4302         estimate D2E/DX2                !
 ! D113  D(11,9,10,16)         -28.0291         estimate D2E/DX2                !
 ! D114  D(8,9,11,12)          115.1345         estimate D2E/DX2                !
 ! D115  D(8,9,11,13)          -66.3039         estimate D2E/DX2                !
 ! D116  D(10,9,11,12)         -63.381          estimate D2E/DX2                !
 ! D117  D(10,9,11,13)         115.1806         estimate D2E/DX2                !
 ! D118  D(9,11,13,14)         129.3619         estimate D2E/DX2                !
 ! D119  D(9,11,13,15)        -107.2273         estimate D2E/DX2                !
 ! D120  D(9,11,13,36)          10.4649         estimate D2E/DX2                !
 ! D121  D(12,11,13,14)        -52.1299         estimate D2E/DX2                !
 ! D122  D(12,11,13,15)         71.2808         estimate D2E/DX2                !
 ! D123  D(12,11,13,36)       -171.027          estimate D2E/DX2                !
 ! D124  D(11,13,14,37)        -49.494          estimate D2E/DX2                !
 ! D125  D(11,13,14,38)         66.9776         estimate D2E/DX2                !
 ! D126  D(11,13,14,62)       -170.4153         estimate D2E/DX2                !
 ! D127  D(15,13,14,37)       -170.3425         estimate D2E/DX2                !
 ! D128  D(15,13,14,38)        -53.8709         estimate D2E/DX2                !
 ! D129  D(15,13,14,62)         68.7362         estimate D2E/DX2                !
 ! D130  D(36,13,14,37)         69.4144         estimate D2E/DX2                !
 ! D131  D(36,13,14,38)       -174.114          estimate D2E/DX2                !
 ! D132  D(36,13,14,62)        -51.5069         estimate D2E/DX2                !
 ! D133  D(11,13,15,39)        173.8107         estimate D2E/DX2                !
 ! D134  D(11,13,15,40)         54.1138         estimate D2E/DX2                !
 ! D135  D(11,13,15,41)        -65.3325         estimate D2E/DX2                !
 ! D136  D(14,13,15,39)        -64.8758         estimate D2E/DX2                !
 ! D137  D(14,13,15,40)        175.4273         estimate D2E/DX2                !
 ! D138  D(14,13,15,41)         55.981          estimate D2E/DX2                !
 ! D139  D(36,13,15,39)         55.7178         estimate D2E/DX2                !
 ! D140  D(36,13,15,40)        -63.979          estimate D2E/DX2                !
 ! D141  D(36,13,15,41)        176.5746         estimate D2E/DX2                !
 ! D142  D(13,14,62,63)         56.326          estimate D2E/DX2                !
 ! D143  D(13,14,62,64)        -64.8027         estimate D2E/DX2                !
 ! D144  D(13,14,62,65)        175.8094         estimate D2E/DX2                !
 ! D145  D(37,14,62,63)        -65.1901         estimate D2E/DX2                !
 ! D146  D(37,14,62,64)        173.6812         estimate D2E/DX2                !
 ! D147  D(37,14,62,65)         54.2933         estimate D2E/DX2                !
 ! D148  D(38,14,62,63)        179.5627         estimate D2E/DX2                !
 ! D149  D(38,14,62,64)         58.434          estimate D2E/DX2                !
 ! D150  D(38,14,62,65)        -60.9538         estimate D2E/DX2                !
 ! D151  D(7,17,18,19)         -32.6181         estimate D2E/DX2                !
 ! D152  D(7,17,18,28)          85.2403         estimate D2E/DX2                !
 ! D153  D(7,17,18,29)        -151.1617         estimate D2E/DX2                !
 ! D154  D(20,17,18,19)         77.197          estimate D2E/DX2                !
 ! D155  D(20,17,18,28)       -164.9446         estimate D2E/DX2                !
 ! D156  D(20,17,18,29)        -41.3466         estimate D2E/DX2                !
 ! D157  D(30,17,18,19)       -154.7654         estimate D2E/DX2                !
 ! D158  D(30,17,18,28)        -36.907          estimate D2E/DX2                !
 ! D159  D(30,17,18,29)         86.691          estimate D2E/DX2                !
 ! D160  D(7,17,20,3)          -36.6478         estimate D2E/DX2                !
 ! D161  D(7,17,20,42)        -157.8369         estimate D2E/DX2                !
 ! D162  D(7,17,20,43)          82.9394         estimate D2E/DX2                !
 ! D163  D(18,17,20,3)        -146.8608         estimate D2E/DX2                !
 ! D164  D(18,17,20,42)         91.9501         estimate D2E/DX2                !
 ! D165  D(18,17,20,43)        -27.2736         estimate D2E/DX2                !
 ! D166  D(30,17,20,3)          84.4112         estimate D2E/DX2                !
 ! D167  D(30,17,20,42)        -36.7779         estimate D2E/DX2                !
 ! D168  D(30,17,20,43)       -156.0016         estimate D2E/DX2                !
 ! D169  D(17,18,19,8)          16.9557         estimate D2E/DX2                !
 ! D170  D(28,18,19,8)        -104.0394         estimate D2E/DX2                !
 ! D171  D(29,18,19,8)         138.9672         estimate D2E/DX2                !
 ! D172  D(17,18,28,53)        -62.0523         estimate D2E/DX2                !
 ! D173  D(17,18,28,54)       -179.5218         estimate D2E/DX2                !
 ! D174  D(17,18,28,55)         60.1244         estimate D2E/DX2                !
 ! D175  D(19,18,28,53)         54.313          estimate D2E/DX2                !
 ! D176  D(19,18,28,54)        -63.1565         estimate D2E/DX2                !
 ! D177  D(19,18,28,55)        176.4896         estimate D2E/DX2                !
 ! D178  D(29,18,28,53)        171.3988         estimate D2E/DX2                !
 ! D179  D(29,18,28,54)         53.9293         estimate D2E/DX2                !
 ! D180  D(29,18,28,55)        -66.4245         estimate D2E/DX2                !
 ! D181  D(17,18,29,56)        -57.5195         estimate D2E/DX2                !
 ! D182  D(17,18,29,57)       -178.0349         estimate D2E/DX2                !
 ! D183  D(17,18,29,58)         64.7871         estimate D2E/DX2                !
 ! D184  D(19,18,29,56)       -174.4725         estimate D2E/DX2                !
 ! D185  D(19,18,29,57)         65.012          estimate D2E/DX2                !
 ! D186  D(19,18,29,58)        -52.1659         estimate D2E/DX2                !
 ! D187  D(28,18,29,56)         68.5836         estimate D2E/DX2                !
 ! D188  D(28,18,29,57)        -51.9319         estimate D2E/DX2                !
 ! D189  D(28,18,29,58)       -169.1098         estimate D2E/DX2                !
 ! D190  D(5,22,23,24)          40.086          estimate D2E/DX2                !
 ! D191  D(5,22,23,25)         162.3707         estimate D2E/DX2                !
 ! D192  D(5,22,23,47)         -73.648          estimate D2E/DX2                !
 ! D193  D(45,22,23,24)        162.3446         estimate D2E/DX2                !
 ! D194  D(45,22,23,25)        -75.3707         estimate D2E/DX2                !
 ! D195  D(45,22,23,47)         48.6106         estimate D2E/DX2                !
 ! D196  D(46,22,23,24)        -77.6194         estimate D2E/DX2                !
 ! D197  D(46,22,23,25)         44.6652         estimate D2E/DX2                !
 ! D198  D(46,22,23,47)        168.6466         estimate D2E/DX2                !
 ! D199  D(22,23,24,4)         -28.5656         estimate D2E/DX2                !
 ! D200  D(25,23,24,4)        -153.4431         estimate D2E/DX2                !
 ! D201  D(47,23,24,4)          87.7503         estimate D2E/DX2                !
 ! D202  D(22,23,25,26)        -70.3084         estimate D2E/DX2                !
 ! D203  D(22,23,25,27)        109.8911         estimate D2E/DX2                !
 ! D204  D(24,23,25,26)         48.5318         estimate D2E/DX2                !
 ! D205  D(24,23,25,27)       -131.2687         estimate D2E/DX2                !
 ! D206  D(47,23,25,26)        165.424          estimate D2E/DX2                !
 ! D207  D(47,23,25,27)        -14.3765         estimate D2E/DX2                !
 ! D208  D(23,25,26,48)        -66.7542         estimate D2E/DX2                !
 ! D209  D(23,25,26,49)         54.2464         estimate D2E/DX2                !
 ! D210  D(23,25,26,50)        173.9049         estimate D2E/DX2                !
 ! D211  D(27,25,26,48)        113.0474         estimate D2E/DX2                !
 ! D212  D(27,25,26,49)       -125.952          estimate D2E/DX2                !
 ! D213  D(27,25,26,50)         -6.2935         estimate D2E/DX2                !
 ! D214  D(23,25,27,51)         -0.0864         estimate D2E/DX2                !
 ! D215  D(23,25,27,52)        179.7956         estimate D2E/DX2                !
 ! D216  D(26,25,27,51)       -179.884          estimate D2E/DX2                !
 ! D217  D(26,25,27,52)         -0.002          estimate D2E/DX2                !
 --------------------------------------------------------------------------------
 Trust Radius=3.00D-01 FncErr=1.00D-07 GrdErr=1.00D-06
 Number of steps in this run=    390 maximum allowed number of steps=    390.
 GradGradGradGradGradGradGradGradGradGradGradGradGradGradGradGradGradGrad

 Stoichiometry    C26H34O5
 Framework group  C1[X(C26H34O5)]
 Deg. of freedom   189
 Full point group                 C1      NOp   1
 Largest Abelian subgroup         C1      NOp   1
 Largest concise Abelian subgroup C1      NOp   1
                         Standard orientation:                         
 ---------------------------------------------------------------------
 Center     Atomic      Atomic             Coordinates (Angstroms)
 Number     Number       Type             X           Y           Z
 ---------------------------------------------------------------------
      1          6           0       -1.668839    0.225840    3.093213
      2          6           0       -1.562777    1.447261    2.552893
      3          6           0       -1.590058    1.668609    1.061715
      4          6           0       -1.510438    0.398409    0.166399
      5          6           0       -1.373795   -0.983499    0.846584
      6          6           0       -1.854948   -1.032091    2.313569
      7          6           0       -0.367249    0.690455   -0.827840
      8          6           0        0.988844    0.262393   -0.386437
      9          6           0        1.194947   -0.794716    0.403843
     10          6           0        0.028587   -1.610775    0.798388
     11          6           0        2.554559   -1.112487    0.892173
     12          8           0        2.791841   -1.047120    2.098457
     13          6           0        3.599123   -1.542708   -0.132212
     14          6           0        4.871124   -0.702414    0.054612
     15          6           0        3.850171   -3.040110    0.030393
     16          8           0        0.197038   -2.799646    1.078606
     17          6           0       -0.164240    2.189258   -0.865667
     18          6           0        1.311531    2.320169   -1.297199
     19          8           0        1.987567    1.169796   -0.727166
     20          6           0       -0.447900    2.586769    0.589469
     21          8           0       -0.629964    0.143701   -2.108182
     22          6           0       -2.296701   -1.852736   -0.020035
     23          6           0       -3.409220   -0.885129   -0.377490
     24          8           0       -2.743273    0.359336   -0.635057
     25          6           0       -4.262353   -1.296411   -1.551050
     26          6           0       -3.663773   -1.264631   -2.928846
     27          6           0       -5.538562   -1.681953   -1.374015
     28          6           0        1.493402    2.273365   -2.822850
     29          6           0        1.993922    3.588482   -0.773078
     30          1           0       -0.846269    2.703344   -1.552594
     31          1           0       -2.534101    2.187900    0.840223
     32          6           0       -1.491215    2.669926    3.430935
     33          1           0       -1.682106    0.115435    4.176815
     34          1           0       -2.920372   -1.286316    2.376792
     35          1           0       -1.339813   -1.835027    2.856826
     36          1           0        3.202428   -1.367624   -1.139661
     37          1           0        4.602860    0.360594    0.098871
     38          1           0        5.345749   -0.938451    1.015203
     39          1           0        4.511893   -3.420345   -0.753560
     40          1           0        2.910732   -3.600905   -0.028656
     41          1           0        4.305151   -3.265034    1.001337
     42          1           0       -0.726137    3.644742    0.657582
     43          1           0        0.433778    2.444561    1.226619
     44          1           0       -1.574124    0.336560   -2.273630
     45          1           0       -2.671352   -2.745366    0.493700
     46          1           0       -1.763424   -2.196625   -0.915157
     47          1           0       -4.050774   -0.714077    0.496463
     48          1           0       -3.448208   -0.234535   -3.227777
     49          1           0       -2.739143   -1.847118   -2.970070
     50          1           0       -4.342358   -1.684527   -3.679715
     51          1           0       -5.995088   -1.711825   -0.389282
     52          1           0       -6.164928   -1.977450   -2.210577
     53          1           0        1.165439    1.324663   -3.255648
     54          1           0        2.554197    2.360825   -3.086667
     55          1           0        0.949383    3.087321   -3.312896
     56          1           0        1.462153    4.489610   -1.095154
     57          1           0        3.026888    3.650308   -1.135763
     58          1           0        2.071547    3.594027    0.318458
     59          1           0       -1.625967    2.425074    4.490025
     60          1           0       -0.521511    3.166463    3.329838
     61          1           0       -2.278498    3.379608    3.156325
     62          6           0        5.884295   -0.894945   -1.063991
     63          1           0        5.439084   -0.674421   -2.039244
     64          1           0        6.272057   -1.917599   -1.082836
     65          1           0        6.734538   -0.220305   -0.920324
 ---------------------------------------------------------------------
 Rotational constants (GHZ):      0.2113768      0.1194041      0.1140566
 Standard basis: 6-31G(d) (6D, 7F)
 There are   533 symmetry adapted basis functions of A   symmetry.
 Integral buffers will be    131072 words long.
 Raffenetti 2 integral format.
 Two-electron integral symmetry is turned on.
   533 basis functions,  1004 primitive gaussians,   533 cartesian basis functions
   115 alpha electrons      115 beta electrons
       nuclear repulsion energy      3510.5266369235 Hartrees.
 NAtoms=   65 NActive=   65 NUniq=   65 SFac= 1.00D+00 NAtFMM=   50 NAOKFM=T Big=T
 One-electron integrals computed using PRISM.
 NBasis=   533 RedAO= T  NBF=   533
 NBsUse=   533 1.00D-06 NBFU=   533
 Harris functional with IExCor=  402 diagonalized for initial guess.
 ExpMin= 1.61D-01 ExpMax= 5.48D+03 ExpMxC= 8.25D+02 IAcc=1 IRadAn=         1 AccDes= 0.00D+00
 HarFok:  IExCor=  402 AccDes= 0.00D+00 IRadAn=         1 IDoV= 1
 ScaDFX=  1.000000  1.000000  1.000000  1.000000
 FoFCou: FMM=F IPFlag=           0 FMFlag=      100000 FMFlg1=        2001
         NFxFlg=           0 DoJE=T BraDBF=F KetDBF=T FulRan=T
         Omega=  0.000000  0.000000  1.000000  0.000000  0.000000 ICntrl=     500 IOpCl=  0
         NMat0=    1 NMatS0=    1 NMatT0=    0 NMatD0=    1 NMtDS0=    0 NMtDT0=    0
         I1Cent=           4 NGrid=           0.
 Petite list used in FoFCou.
 Initial guess orbital symmetries:
       Occupied  (A) (A) (A) (A) (A) (A) (A) (A) (A) (A) (A) (A)
                 (A) (A) (A) (A) (A) (A) (A) (A) (A) (A) (A) (A)
                 (A) (A) (A) (A) (A) (A) (A) (A) (A) (A) (A) (A)
                 (A) (A) (A) (A) (A) (A) (A) (A) (A) (A) (A) (A)
                 (A) (A) (A) (A) (A) (A) (A) (A) (A) (A) (A) (A)
                 (A) (A) (A) (A) (A) (A) (A) (A) (A) (A) (A) (A)
                 (A) (A) (A) (A) (A) (A) (A) (A) (A) (A) (A) (A)
                 (A) (A) (A) (A) (A) (A) (A) (A) (A) (A) (A) (A)
                 (A) (A) (A) (A) (A) (A) (A) (A) (A) (A) (A) (A)
                 (A) (A) (A) (A) (A) (A) (A)
       Virtual   (A) (A) (A) (A) (A) (A) (A) (A) (A) (A) (A) (A)
                 (A) (A) (A) (A) (A) (A) (A) (A) (A) (A) (A) (A)
                 (A) (A) (A) (A) (A) (A) (A) (A) (A) (A) (A) (A)
                 (A) (A) (A) (A) (A) (A) (A) (A) (A) (A) (A) (A)
                 (A) (A) (A) (A) (A) (A) (A) (A) (A) (A) (A) (A)
                 (A) (A) (A) (A) (A) (A) (A) (A) (A) (A) (A) (A)
                 (A) (A) (A) (A) (A) (A) (A) (A) (A) (A) (A) (A)
                 (A) (A) (A) (A) (A) (A) (A) (A) (A) (A) (A) (A)
                 (A) (A) (A) (A) (A) (A) (A) (A) (A) (A) (A) (A)
                 (A) (A) (A) (A) (A) (A) (A) (A) (A) (A) (A) (A)
                 (A) (A) (A) (A) (A) (A) (A) (A) (A) (A) (A) (A)
                 (A) (A) (A) (A) (A) (A) (A) (A) (A) (A) (A) (A)
                 (A) (A) (A) (A) (A) (A) (A) (A) (A) (A) (A) (A)
                 (A) (A) (A) (A) (A) (A) (A) (A) (A) (A) (A) (A)
                 (A) (A) (A) (A) (A) (A) (A) (A) (A) (A) (A) (A)
                 (A) (A) (A) (A) (A) (A) (A) (A) (A) (A) (A) (A)
                 (A) (A) (A) (A) (A) (A) (A) (A) (A) (A) (A) (A)
                 (A) (A) (A) (A) (A) (A) (A) (A) (A) (A) (A) (A)
                 (A) (A) (A) (A) (A) (A) (A) (A) (A) (A) (A) (A)
                 (A) (A) (A) (A) (A) (A) (A) (A) (A) (A) (A) (A)
                 (A) (A) (A) (A) (A) (A) (A) (A) (A) (A) (A) (A)
                 (A) (A) (A) (A) (A) (A) (A) (A) (A) (A) (A) (A)
                 (A) (A) (A) (A) (A) (A) (A) (A) (A) (A) (A) (A)
                 (A) (A) (A) (A) (A) (A) (A) (A) (A) (A) (A) (A)
                 (A) (A) (A) (A) (A) (A) (A) (A) (A) (A) (A) (A)
                 (A) (A) (A) (A) (A) (A) (A) (A) (A) (A) (A) (A)
                 (A) (A) (A) (A) (A) (A) (A) (A) (A) (A) (A) (A)
                 (A) (A) (A) (A) (A) (A) (A) (A) (A) (A) (A) (A)
                 (A) (A) (A) (A) (A) (A) (A) (A) (A) (A) (A) (A)
                 (A) (A) (A) (A) (A) (A) (A) (A) (A) (A) (A) (A)
                 (A) (A) (A) (A) (A) (A) (A) (A) (A) (A) (A) (A)
                 (A) (A) (A) (A) (A) (A) (A) (A) (A) (A) (A) (A)
                 (A) (A) (A) (A) (A) (A) (A) (A) (A) (A) (A) (A)
                 (A) (A) (A) (A) (A) (A) (A) (A) (A) (A) (A) (A)
                 (A) (A) (A) (A) (A) (A) (A) (A) (A) (A)
 The electronic state of the initial guess is 1-A.
 Requested convergence on RMS density matrix=1.00D-08 within 128 cycles.
 Requested convergence on MAX density matrix=1.00D-06.
 Requested convergence on             energy=1.00D-06.
 No special actions if energy rises.
 Integral accuracy reduced to 1.0D-05 until final iterations.
 Initial convergence to 1.0D-05 achieved.  Increase integral accuracy.
 SCF Done:  E(RB3LYP) =  -1387.30108552     A.U. after   16 cycles
             Convg  =    0.3132D-08             -V/T =  2.0091

 **********************************************************************

            Population analysis using the SCF density.

 **********************************************************************

 Orbital symmetries:
       Occupied  (A) (A) (A) (A) (A) (A) (A) (A) (A) (A) (A) (A)
                 (A) (A) (A) (A) (A) (A) (A) (A) (A) (A) (A) (A)
                 (A) (A) (A) (A) (A) (A) (A) (A) (A) (A) (A) (A)
                 (A) (A) (A) (A) (A) (A) (A) (A) (A) (A) (A) (A)
                 (A) (A) (A) (A) (A) (A) (A) (A) (A) (A) (A) (A)
                 (A) (A) (A) (A) (A) (A) (A) (A) (A) (A) (A) (A)
                 (A) (A) (A) (A) (A) (A) (A) (A) (A) (A) (A) (A)
                 (A) (A) (A) (A) (A) (A) (A) (A) (A) (A) (A) (A)
                 (A) (A) (A) (A) (A) (A) (A) (A) (A) (A) (A) (A)
                 (A) (A) (A) (A) (A) (A) (A)
       Virtual   (A) (A) (A) (A) (A) (A) (A) (A) (A) (A) (A) (A)
                 (A) (A) (A) (A) (A) (A) (A) (A) (A) (A) (A) (A)
                 (A) (A) (A) (A) (A) (A) (A) (A) (A) (A) (A) (A)
                 (A) (A) (A) (A) (A) (A) (A) (A) (A) (A) (A) (A)
                 (A) (A) (A) (A) (A) (A) (A) (A) (A) (A) (A) (A)
                 (A) (A) (A) (A) (A) (A) (A) (A) (A) (A) (A) (A)
                 (A) (A) (A) (A) (A) (A) (A) (A) (A) (A) (A) (A)
                 (A) (A) (A) (A) (A) (A) (A) (A) (A) (A) (A) (A)
                 (A) (A) (A) (A) (A) (A) (A) (A) (A) (A) (A) (A)
                 (A) (A) (A) (A) (A) (A) (A) (A) (A) (A) (A) (A)
                 (A) (A) (A) (A) (A) (A) (A) (A) (A) (A) (A) (A)
                 (A) (A) (A) (A) (A) (A) (A) (A) (A) (A) (A) (A)
                 (A) (A) (A) (A) (A) (A) (A) (A) (A) (A) (A) (A)
                 (A) (A) (A) (A) (A) (A) (A) (A) (A) (A) (A) (A)
                 (A) (A) (A) (A) (A) (A) (A) (A) (A) (A) (A) (A)
                 (A) (A) (A) (A) (A) (A) (A) (A) (A) (A) (A) (A)
                 (A) (A) (A) (A) (A) (A) (A) (A) (A) (A) (A) (A)
                 (A) (A) (A) (A) (A) (A) (A) (A) (A) (A) (A) (A)
                 (A) (A) (A) (A) (A) (A) (A) (A) (A) (A) (A) (A)
                 (A) (A) (A) (A) (A) (A) (A) (A) (A) (A) (A) (A)
                 (A) (A) (A) (A) (A) (A) (A) (A) (A) (A) (A) (A)
                 (A) (A) (A) (A) (A) (A) (A) (A) (A) (A) (A) (A)
                 (A) (A) (A) (A) (A) (A) (A) (A) (A) (A) (A) (A)
                 (A) (A) (A) (A) (A) (A) (A) (A) (A) (A) (A) (A)
                 (A) (A) (A) (A) (A) (A) (A) (A) (A) (A) (A) (A)
                 (A) (A) (A) (A) (A) (A) (A) (A) (A) (A) (A) (A)
                 (A) (A) (A) (A) (A) (A) (A) (A) (A) (A) (A) (A)
                 (A) (A) (A) (A) (A) (A) (A) (A) (A) (A) (A) (A)
                 (A) (A) (A) (A) (A) (A) (A) (A) (A) (A) (A) (A)
                 (A) (A) (A) (A) (A) (A) (A) (A) (A) (A) (A) (A)
                 (A) (A) (A) (A) (A) (A) (A) (A) (A) (A) (A) (A)
                 (A) (A) (A) (A) (A) (A) (A) (A) (A) (A) (A) (A)
                 (A) (A) (A) (A) (A) (A) (A) (A) (A) (A) (A) (A)
                 (A) (A) (A) (A) (A) (A) (A) (A) (A) (A) (A) (A)
                 (A) (A) (A) (A) (A) (A) (A) (A) (A) (A)
 The electronic state is 1-A.
 Alpha  occ. eigenvalues --  -19.19844 -19.16686 -19.15483 -19.13395 -19.12991
 Alpha  occ. eigenvalues --  -10.27836 -10.26850 -10.26681 -10.26281 -10.25993
 Alpha  occ. eigenvalues --  -10.25638 -10.24712 -10.21644 -10.20480 -10.20200
 Alpha  occ. eigenvalues --  -10.20187 -10.19505 -10.19447 -10.19281 -10.19275
 Alpha  occ. eigenvalues --  -10.19184 -10.18936 -10.18808 -10.18509 -10.18395
 Alpha  occ. eigenvalues --  -10.18356 -10.18039 -10.17906 -10.17091 -10.16743
 Alpha  occ. eigenvalues --  -10.16624  -1.08659  -1.05931  -1.03215  -1.02498
 Alpha  occ. eigenvalues --   -1.02019  -0.87359  -0.84051  -0.82741  -0.81708
 Alpha  occ. eigenvalues --   -0.80440  -0.79922  -0.77091  -0.74328  -0.73721
 Alpha  occ. eigenvalues --   -0.72456  -0.71636  -0.69766  -0.69540  -0.67960
 Alpha  occ. eigenvalues --   -0.65481  -0.64568  -0.63129  -0.62228  -0.60901
 Alpha  occ. eigenvalues --   -0.59383  -0.58590  -0.57360  -0.55094  -0.53716
 Alpha  occ. eigenvalues --   -0.53285  -0.52155  -0.50814  -0.50492  -0.49340
 Alpha  occ. eigenvalues --   -0.48437  -0.47666  -0.46767  -0.46424  -0.45552
 Alpha  occ. eigenvalues --   -0.45240  -0.44867  -0.44421  -0.43929  -0.43542
 Alpha  occ. eigenvalues --   -0.43207  -0.42885  -0.42163  -0.41664  -0.41319
 Alpha  occ. eigenvalues --   -0.40782  -0.40685  -0.40479  -0.40095  -0.39518
 Alpha  occ. eigenvalues --   -0.39379  -0.39001  -0.38615  -0.38230  -0.38114
 Alpha  occ. eigenvalues --   -0.37637  -0.37385  -0.37118  -0.36798  -0.36459
 Alpha  occ. eigenvalues --   -0.36155  -0.35485  -0.35246  -0.34675  -0.34261
 Alpha  occ. eigenvalues --   -0.33905  -0.33581  -0.33411  -0.32647  -0.32517
 Alpha  occ. eigenvalues --   -0.31770  -0.31391  -0.31174  -0.28027  -0.27001
 Alpha  occ. eigenvalues --   -0.25523  -0.24991  -0.24417  -0.23327  -0.23278
 Alpha virt. eigenvalues --   -0.05168  -0.02083   0.00737   0.02416   0.04195
 Alpha virt. eigenvalues --    0.07015   0.08040   0.08678   0.09170   0.09835
 Alpha virt. eigenvalues --    0.10421   0.10547   0.11585   0.11723   0.12611
 Alpha virt. eigenvalues --    0.12784   0.13223   0.13516   0.13635   0.14272
 Alpha virt. eigenvalues --    0.14351   0.14538   0.14963   0.15204   0.15735
 Alpha virt. eigenvalues --    0.16116   0.16651   0.17166   0.17363   0.17443
 Alpha virt. eigenvalues --    0.17813   0.17945   0.18106   0.18324   0.18743
 Alpha virt. eigenvalues --    0.19107   0.19371   0.19757   0.19940   0.20579
 Alpha virt. eigenvalues --    0.20743   0.21185   0.21740   0.22383   0.22534
 Alpha virt. eigenvalues --    0.22737   0.23064   0.23825   0.23844   0.24734
 Alpha virt. eigenvalues --    0.24844   0.25482   0.25976   0.26349   0.26573
 Alpha virt. eigenvalues --    0.27039   0.28013   0.28872   0.29095   0.30213
 Alpha virt. eigenvalues --    0.30701   0.31447   0.32664   0.33131   0.34613
 Alpha virt. eigenvalues --    0.34871   0.36264   0.37454   0.39014   0.40931
 Alpha virt. eigenvalues --    0.42856   0.45506   0.47182   0.47737   0.48170
 Alpha virt. eigenvalues --    0.50015   0.50946   0.51527   0.52013   0.52218
 Alpha virt. eigenvalues --    0.52246   0.52537   0.52980   0.53112   0.53498
 Alpha virt. eigenvalues --    0.54164   0.54841   0.55177   0.55914   0.56304
 Alpha virt. eigenvalues --    0.56904   0.57213   0.57663   0.58068   0.58761
 Alpha virt. eigenvalues --    0.59150   0.59936   0.60683   0.61394   0.61773
 Alpha virt. eigenvalues --    0.61929   0.62698   0.63210   0.64169   0.64582
 Alpha virt. eigenvalues --    0.64729   0.65357   0.66260   0.66620   0.67244
 Alpha virt. eigenvalues --    0.67885   0.68132   0.68169   0.68640   0.69424
 Alpha virt. eigenvalues --    0.69655   0.70971   0.71581   0.72985   0.73196
 Alpha virt. eigenvalues --    0.73932   0.75025   0.75429   0.75994   0.76717
 Alpha virt. eigenvalues --    0.77600   0.78199   0.79228   0.79583   0.80072
 Alpha virt. eigenvalues --    0.80690   0.80938   0.81417   0.81992   0.82543
 Alpha virt. eigenvalues --    0.82846   0.83049   0.83603   0.84215   0.84729
 Alpha virt. eigenvalues --    0.85317   0.85576   0.85915   0.86851   0.87089
 Alpha virt. eigenvalues --    0.87453   0.87892   0.88118   0.88784   0.89235
 Alpha virt. eigenvalues --    0.89345   0.89524   0.89867   0.90156   0.90406
 Alpha virt. eigenvalues --    0.90886   0.91100   0.91523   0.92034   0.92265
 Alpha virt. eigenvalues --    0.92792   0.93272   0.93576   0.94430   0.94862
 Alpha virt. eigenvalues --    0.95452   0.95803   0.96006   0.96815   0.96965
 Alpha virt. eigenvalues --    0.97814   0.98004   0.98638   0.99146   0.99970
 Alpha virt. eigenvalues --    1.00460   1.01261   1.02118   1.02454   1.03641
 Alpha virt. eigenvalues --    1.04075   1.05036   1.06092   1.07054   1.08027
 Alpha virt. eigenvalues --    1.08286   1.09802   1.10176   1.11226   1.12539
 Alpha virt. eigenvalues --    1.13491   1.14356   1.15067   1.16053   1.17754
 Alpha virt. eigenvalues --    1.18258   1.18732   1.19459   1.19702   1.21431
 Alpha virt. eigenvalues --    1.22323   1.23652   1.24600   1.25596   1.26663
 Alpha virt. eigenvalues --    1.27930   1.29271   1.29880   1.30153   1.33285
 Alpha virt. eigenvalues --    1.33363   1.34221   1.36093   1.38685   1.39339
 Alpha virt. eigenvalues --    1.40900   1.41464   1.42798   1.43142   1.46718
 Alpha virt. eigenvalues --    1.47679   1.49256   1.49563   1.50678   1.52575
 Alpha virt. eigenvalues --    1.53669   1.54491   1.55154   1.56366   1.57560
 Alpha virt. eigenvalues --    1.60120   1.60470   1.62059   1.62527   1.63559
 Alpha virt. eigenvalues --    1.65756   1.66484   1.67364   1.68155   1.69338
 Alpha virt. eigenvalues --    1.70811   1.71462   1.72405   1.72957   1.74053
 Alpha virt. eigenvalues --    1.74399   1.75148   1.76130   1.77054   1.78353
 Alpha virt. eigenvalues --    1.78725   1.79259   1.80400   1.81535   1.81696
 Alpha virt. eigenvalues --    1.82981   1.83347   1.84119   1.85163   1.85738
 Alpha virt. eigenvalues --    1.86154   1.86763   1.87774   1.88221   1.88610
 Alpha virt. eigenvalues --    1.89726   1.89929   1.90697   1.90801   1.91855
 Alpha virt. eigenvalues --    1.92274   1.92985   1.93525   1.94139   1.95136
 Alpha virt. eigenvalues --    1.96430   1.96728   1.97544   1.97998   1.98856
 Alpha virt. eigenvalues --    1.99025   1.99476   1.99782   2.00259   2.00616
 Alpha virt. eigenvalues --    2.02667   2.03651   2.04480   2.04896   2.05659
 Alpha virt. eigenvalues --    2.06168   2.07197   2.07530   2.08957   2.09073
 Alpha virt. eigenvalues --    2.09507   2.11282   2.12703   2.13187   2.13394
 Alpha virt. eigenvalues --    2.14733   2.16193   2.16593   2.17752   2.19048
 Alpha virt. eigenvalues --    2.19743   2.20406   2.21560   2.22323   2.22728
 Alpha virt. eigenvalues --    2.23406   2.23913   2.25244   2.25954   2.27045
 Alpha virt. eigenvalues --    2.28237   2.28951   2.30210   2.30299   2.31767
 Alpha virt. eigenvalues --    2.32384   2.33033   2.33593   2.34292   2.35249
 Alpha virt. eigenvalues --    2.35716   2.37308   2.37482   2.38352   2.39478
 Alpha virt. eigenvalues --    2.39956   2.41955   2.42083   2.42922   2.44059
 Alpha virt. eigenvalues --    2.44683   2.45995   2.47160   2.47718   2.49048
 Alpha virt. eigenvalues --    2.49785   2.50658   2.51591   2.53128   2.55228
 Alpha virt. eigenvalues --    2.57187   2.57567   2.58417   2.59588   2.59836
 Alpha virt. eigenvalues --    2.61247   2.62984   2.64530   2.65135   2.65917
 Alpha virt. eigenvalues --    2.66626   2.67688   2.69035   2.70288   2.71810
 Alpha virt. eigenvalues --    2.72702   2.74530   2.75286   2.76854   2.78657
 Alpha virt. eigenvalues --    2.78840   2.81330   2.81478   2.84382   2.85831
 Alpha virt. eigenvalues --    2.88837   2.90188   2.92710   2.93852   2.95526
 Alpha virt. eigenvalues --    2.96271   2.99617   2.99804   3.02657   3.02944
 Alpha virt. eigenvalues --    3.04956   3.06693   3.13732   3.16767   3.19405
 Alpha virt. eigenvalues --    3.23109   3.28859   4.03047   4.09660   4.12406
 Alpha virt. eigenvalues --    4.13120   4.14856   4.17100   4.18401   4.20547
 Alpha virt. eigenvalues --    4.22050   4.24152   4.25175   4.28008   4.29345
 Alpha virt. eigenvalues --    4.31553   4.36136   4.38007   4.40243   4.43596
 Alpha virt. eigenvalues --    4.48215   4.49756   4.51990   4.55901   4.60215
 Alpha virt. eigenvalues --    4.60906   4.64454   4.70289   4.70758   4.79711
 Alpha virt. eigenvalues --    4.92299   4.98740   5.20178
          Condensed to atoms (all electrons):
 Mulliken atomic charges:
              1
     1  C   -0.186733
     2  C    0.190893
     3  C   -0.188424
     4  C    0.325587
     5  C   -0.037101
     6  C   -0.337182
     7  C    0.197094
     8  C    0.396531
     9  C   -0.086153
    10  C    0.413961
    11  C    0.425036
    12  O   -0.466575
    13  C   -0.141596
    14  C   -0.250400
    15  C   -0.459865
    16  O   -0.493386
    17  C   -0.160298
    18  C    0.311925
    19  O   -0.542708
    20  C   -0.318807
    21  O   -0.667478
    22  C   -0.311285
    23  C    0.086849
    24  O   -0.590115
    25  C    0.226943
    26  C   -0.531775
    27  C   -0.401529
    28  C   -0.462125
    29  C   -0.464463
    30  H    0.143118
    31  H    0.163107
    32  C   -0.517088
    33  H    0.123762
    34  H    0.153054
    35  H    0.183787
    36  H    0.135492
    37  H    0.142629
    38  H    0.150746
    39  H    0.147056
    40  H    0.167357
    41  H    0.162069
    42  H    0.148532
    43  H    0.168517
    44  H    0.423259
    45  H    0.169429
    46  H    0.167500
    47  H    0.133151
    48  H    0.159506
    49  H    0.172444
    50  H    0.158643
    51  H    0.138961
    52  H    0.141571
    53  H    0.183965
    54  H    0.148853
    55  H    0.140394
    56  H    0.150884
    57  H    0.157688
    58  H    0.160619
    59  H    0.158566
    60  H    0.159530
    61  H    0.148573
    62  C   -0.450595
    63  H    0.140234
    64  H    0.145915
    65  H    0.141948
 Sum of Mulliken atomic charges =   0.00000
 Mulliken charges with hydrogens summed into heavy atoms:
              1
     1  C   -0.062971
     2  C    0.190893
     3  C   -0.025317
     4  C    0.325587
     5  C   -0.037101
     6  C   -0.000341
     7  C    0.197094
     8  C    0.396531
     9  C   -0.086153
    10  C    0.413961
    11  C    0.425036
    12  O   -0.466575
    13  C   -0.006103
    14  C    0.042976
    15  C    0.016618
    16  O   -0.493386
    17  C   -0.017180
    18  C    0.311925
    19  O   -0.542708
    20  C   -0.001758
    21  O   -0.244219
    22  C    0.025645
    23  C    0.220000
    24  O   -0.590115
    25  C    0.226943
    26  C   -0.041182
    27  C   -0.120997
    28  C    0.011087
    29  C    0.004729
    32  C   -0.050419
    62  C   -0.022498
 Sum of Mulliken charges with hydrogens summed into heavy atoms =   0.00000
 Electronic spatial extent (au):  <R**2>=          11655.1449
 Charge=              0.0000 electrons
 Dipole moment (field-independent basis, Debye):
    X=             -3.0288    Y=              3.8308    Z=             -2.3390  Tot=              5.4148
 Quadrupole moment (field-independent basis, Debye-Ang):
   XX=           -180.5899   YY=           -182.0840   ZZ=           -185.4071
   XY=              5.3671   XZ=             -7.1480   YZ=              3.8425
 Traceless Quadrupole moment (field-independent basis, Debye-Ang):
   XX=              2.1037   YY=              0.6097   ZZ=             -2.7134
   XY=              5.3671   XZ=             -7.1480   YZ=              3.8425
 Octapole moment (field-independent basis, Debye-Ang**2):
  XXX=             -9.6967  YYY=             51.9163  ZZZ=            -11.5200  XYY=              3.7690
  XXY=            -24.4051  XXZ=            -24.2107  XZZ=            -39.1908  YZZ=              9.4398
  YYZ=            -19.4292  XYZ=              1.7132
 Hexadecapole moment (field-independent basis, Debye-Ang**3):
 XXXX=          -8651.3303 YYYY=          -3774.7612 ZZZZ=          -3119.8838 XXXY=             88.9084
 XXXZ=             42.5244 YYYX=            -26.9269 YYYZ=            -11.7860 ZZZX=             11.8658
 ZZZY=             -5.0993 XXYY=          -2034.2792 XXZZ=          -1983.0742 YYZZ=          -1137.6688
 XXYZ=             25.8110 YYXZ=             -6.3042 ZZXY=             46.7541
 N-N= 3.510526636924D+03 E-N=-1.024731425058D+04  KE= 1.374833330057D+03
 Calling FoFJK, ICntrl=      2127 FMM=T ISym2X=0 I1Cent= 0 IOpClX= 0 NMat=1 NMatS=1 NMatT=0.
 ***** Axes restored to original set *****
 -------------------------------------------------------------------
 Center     Atomic                   Forces (Hartrees/Bohr)
 Number     Number              X              Y              Z
 -------------------------------------------------------------------
      1        6           0.009475834   -0.000710391    0.000110803
      2        6          -0.012559152   -0.005852786    0.002734179
      3        6          -0.001068816   -0.008509675   -0.001058583
      4        6           0.004320586   -0.004486374    0.010991080
      5        6          -0.011236272    0.003671618    0.000036910
      6        6          -0.004531293   -0.012043848   -0.001899020
      7        6           0.012987301    0.018405783    0.008636403
      8        6           0.007377953   -0.011684375   -0.015813310
      9        6           0.001487547    0.003402353    0.007975298
     10        6          -0.012408913    0.003445759   -0.018455198
     11        6          -0.016917859   -0.019094651   -0.009753094
     12        8           0.005662569    0.018076235   -0.000559251
     13        6           0.004392085   -0.007196881   -0.001824599
     14        6           0.004047207   -0.002591605   -0.003584711
     15        6          -0.009518909    0.003214863    0.000648659
     16        8           0.011653698   -0.005977504    0.009703023
     17        6           0.007068662   -0.010746876   -0.006652866
     18        6           0.032371135    0.006302562   -0.002045923
     19        8          -0.024785583    0.003484929    0.027213306
     20        6           0.012078560   -0.005193023   -0.000509563
     21        8          -0.005547949    0.007694325   -0.001591115
     22        6          -0.007610989    0.008419854    0.001242047
     23        6          -0.001830652    0.003733420    0.007916772
     24        8          -0.000935649   -0.004146571   -0.013617657
     25        6          -0.002185007    0.004370340    0.017469781
     26        6          -0.000573285    0.002144120   -0.001124289
     27        6           0.002870782   -0.004428116   -0.008741541
     28        6          -0.003235126    0.007722244   -0.004612800
     29        6          -0.004310619   -0.005900501   -0.008816338
     30        1          -0.001760161    0.001195976   -0.001604950
     31        1          -0.002883693    0.005991020    0.000016149
     32        6          -0.001101591    0.001094863   -0.001018506
     33        1           0.001192033   -0.000448132   -0.000136697
     34        1          -0.000916094    0.005278934    0.001950485
     35        1          -0.000296135    0.006989932    0.000192281
     36        1           0.000982624   -0.001044029    0.000958534
     37        1          -0.000591464   -0.000045207    0.001771916
     38        1          -0.001489210   -0.000367235    0.003346880
     39        1           0.000833099    0.000371887   -0.000492254
     40        1          -0.000399564    0.000067573    0.000247746
     41        1           0.001325379   -0.000975982    0.000512320
     42        1          -0.001435892   -0.002027859   -0.001410747
     43        1          -0.000029537    0.002713663    0.000015499
     44        1          -0.003003417   -0.002259747   -0.002196157
     45        1           0.001738753   -0.002244744   -0.001713863
     46        1           0.001572908   -0.000781545    0.002386992
     47        1          -0.004249564    0.001565188    0.002720700
     48        1           0.002168969    0.000970977   -0.002710623
     49        1           0.002769293    0.000412185   -0.003349607
     50        1          -0.000431144   -0.002353655    0.001014392
     51        1           0.000513543   -0.001239283    0.001266727
     52        1          -0.001747614    0.000621307   -0.000739708
     53        1          -0.000910763   -0.002628467    0.005517301
     54        1           0.002065034   -0.003866585    0.000210810
     55        1           0.000428206   -0.000789357    0.000150414
     56        1          -0.000782270    0.001206512    0.000625743
     57        1           0.000856842    0.002790502    0.001405251
     58        1          -0.000066789   -0.000059960    0.003822794
     59        1          -0.001156456    0.001819908   -0.000639208
     60        1           0.004212715   -0.001664603    0.000270472
     61        1           0.004122245   -0.001080768    0.000137954
     62        6           0.000621264    0.000407157   -0.003483137
     63        1           0.000729884    0.002008561   -0.000511625
     64        1           0.000006293    0.001857003   -0.001097716
     65        1           0.000574430    0.000988785   -0.001454963
 -------------------------------------------------------------------
 Cartesian Forces:  Max     0.032371135 RMS     0.006593792

 GradGradGradGradGradGradGradGradGradGradGradGradGradGradGradGradGradGrad
 Berny optimization.
 Internal  Forces:  Max     0.019029515 RMS     0.003434924
 Search for a local minimum.
 Step number   1 out of a maximum of  390
 All quantities printed in internal units (Hartrees-Bohrs-Radians)
 Mixed Optimization -- RFO/linear search
 Second derivative matrix not updated -- first step.
 ITU=  0
     Eigenvalues ---    0.00274   0.00291   0.00334   0.00409   0.00435
     Eigenvalues ---    0.00437   0.00482   0.00508   0.00585   0.00659
     Eigenvalues ---    0.00669   0.00674   0.00719   0.00732   0.00830
     Eigenvalues ---    0.01041   0.01093   0.01240   0.01271   0.01438
     Eigenvalues ---    0.01470   0.01649   0.01721   0.01835   0.01940
     Eigenvalues ---    0.02536   0.02818   0.02818   0.03005   0.03141
     Eigenvalues ---    0.03488   0.03585   0.03863   0.04028   0.04044
     Eigenvalues ---    0.04084   0.04266   0.04358   0.04608   0.04638
     Eigenvalues ---    0.04801   0.04826   0.04934   0.05096   0.05244
     Eigenvalues ---    0.05304   0.05368   0.05456   0.05472   0.05495
     Eigenvalues ---    0.05503   0.05535   0.05549   0.05571   0.05646
     Eigenvalues ---    0.05713   0.05870   0.05945   0.06248   0.06549
     Eigenvalues ---    0.06708   0.06748   0.07098   0.07145   0.07202
     Eigenvalues ---    0.07226   0.07241   0.07339   0.07791   0.08378
     Eigenvalues ---    0.08444   0.08628   0.08988   0.09212   0.10028
     Eigenvalues ---    0.10113   0.10601   0.11136   0.11636   0.12279
     Eigenvalues ---    0.13168   0.14681   0.15255   0.15969   0.16000
     Eigenvalues ---    0.16000   0.16000   0.16000   0.16000   0.16000
     Eigenvalues ---    0.16000   0.16000   0.16000   0.16000   0.16000
     Eigenvalues ---    0.16000   0.16000   0.16000   0.16000   0.16000
     Eigenvalues ---    0.16000   0.16000   0.16000   0.16000   0.16000
     Eigenvalues ---    0.16031   0.16807   0.17123   0.17464   0.18379
     Eigenvalues ---    0.19884   0.21512   0.21904   0.22696   0.23366
     Eigenvalues ---    0.24368   0.24948   0.24992   0.24993   0.24999
     Eigenvalues ---    0.25000   0.25000   0.25000   0.25946   0.27288
     Eigenvalues ---    0.27342   0.27605   0.27745   0.27890   0.28310
     Eigenvalues ---    0.28771   0.28829   0.28885   0.29181   0.29704
     Eigenvalues ---    0.29892   0.30226   0.30535   0.30776   0.31547
     Eigenvalues ---    0.31656   0.32062   0.32112   0.33449   0.33685
     Eigenvalues ---    0.33925   0.33953   0.33990   0.33992   0.33998
     Eigenvalues ---    0.34000   0.34009   0.34038   0.34061   0.34069
     Eigenvalues ---    0.34121   0.34123   0.34136   0.34160   0.34164
     Eigenvalues ---    0.34174   0.34202   0.34249   0.34258   0.34262
     Eigenvalues ---    0.34266   0.34285   0.34296   0.34320   0.34341
     Eigenvalues ---    0.34344   0.34350   0.34370   0.34401   0.34455
     Eigenvalues ---    0.34663   0.34895   0.35274   0.35300   0.36348
     Eigenvalues ---    0.37585   0.42951   0.43655   0.51823   0.53695
     Eigenvalues ---    0.54651   0.56126   0.89844   0.90615
 RFO step:  Lambda=-2.16124818D-02 EMin= 2.74308470D-03
 Linear search not attempted -- first point.
 Iteration  1 RMS(Cart)=  0.06041901 RMS(Int)=  0.00083660
 Iteration  2 RMS(Cart)=  0.00136011 RMS(Int)=  0.00022552
 Iteration  3 RMS(Cart)=  0.00000081 RMS(Int)=  0.00022552
 Variable       Old X    -DE/DX   Delta X   Delta X   Delta X     New X
                                 (Linear)    (Quad)   (Total)
    R1        2.53186  -0.00210   0.00000  -0.00445  -0.00450   2.52735
    R2        2.81872   0.00855   0.00000   0.02514   0.02504   2.84376
    R3        2.05846  -0.00021   0.00000  -0.00055  -0.00055   2.05791
    R4        2.84926   0.00434   0.00000   0.00995   0.01000   2.85926
    R5        2.84778   0.00288   0.00000   0.00851   0.00851   2.85628
    R6        2.94054   0.00564   0.00000   0.01383   0.01380   2.95434
    R7        2.90954   0.01133   0.00000   0.03846   0.03841   2.94795
    R8        2.07865  -0.00092   0.00000  -0.00257  -0.00257   2.07607
    R9        2.92205   0.00899   0.00000   0.02869   0.02847   2.95052
   R10        2.91575   0.00762   0.00000   0.02545   0.02558   2.94132
   R11        2.77972  -0.00529   0.00000  -0.01448  -0.01446   2.76526
   R12        2.91895   0.00226   0.00000   0.01055   0.01049   2.92943
   R13        2.90457   0.00651   0.00000   0.01556   0.01546   2.92004
   R14        2.90204   0.01041   0.00000   0.03540   0.03533   2.93737
   R15        2.07333   0.00270   0.00000   0.00747   0.00747   2.08080
   R16        2.07457  -0.00121   0.00000  -0.00337  -0.00337   2.07120
   R17        2.81376   0.00952   0.00000   0.02056   0.02019   2.83396
   R18        2.85908   0.01605   0.00000   0.05664   0.05615   2.91523
   R19        2.67731   0.00498   0.00000   0.01104   0.01104   2.68834
   R20        2.52440   0.01204   0.00000   0.02092   0.02097   2.54537
   R21        2.63000  -0.01903   0.00000  -0.04501  -0.04480   2.58520
   R22        2.79143   0.00104   0.00000  -0.00057  -0.00041   2.79102
   R23        2.79526   0.01784   0.00000   0.04846   0.04846   2.84371
   R24        2.33005  -0.01437   0.00000  -0.01562  -0.01562   2.31443
   R25        2.32651  -0.01862   0.00000  -0.02007  -0.02007   2.30644
   R26        2.88180   0.00149   0.00000   0.00463   0.00463   2.88643
   R27        2.90243   0.00497   0.00000   0.01600   0.01600   2.91843
   R28        2.88558   0.00769   0.00000   0.02412   0.02412   2.90970
   R29        2.07266  -0.00003   0.00000  -0.00008  -0.00008   2.07258
   R30        2.07346   0.00012   0.00000   0.00034   0.00034   2.07381
   R31        2.07329  -0.00037   0.00000  -0.00103  -0.00103   2.07226
   R32        2.87515   0.00858   0.00000   0.02650   0.02650   2.90165
   R33        2.06754   0.00062   0.00000   0.00170   0.00170   2.06923
   R34        2.07054   0.00042   0.00000   0.00117   0.00117   2.07171
   R35        2.07038  -0.00014   0.00000  -0.00040  -0.00040   2.06998
   R36        2.91610  -0.00062   0.00000   0.00925   0.00951   2.92560
   R37        2.90053   0.00503   0.00000   0.01764   0.01767   2.91820
   R38        2.07123  -0.00163   0.00000  -0.00450  -0.00450   2.06673
[...]
     55          1           0        0.797299    2.843672   -3.756056
     56          1           0        1.321645    4.455786   -1.788633
     57          1           0        2.859261    3.584098   -1.650332
     58          1           0        1.824771    3.776104   -0.226410
     59          1           0       -1.661764    3.000699    4.146658
     60          1           0       -0.708088    3.674106    2.816375
     61          1           0       -2.466953    3.741872    2.750853
     62          6           0        6.246082   -1.344751   -0.522608
     63          1           0        6.151950   -0.617849   -1.339623
     64          1           0        6.226119   -2.346502   -0.966440
     65          1           0        7.235549   -1.208021   -0.071511
 ---------------------------------------------------------------------
 Rotational constants (GHZ):      0.2032817      0.1184763      0.1129798

 **********************************************************************

            Population analysis using the SCF density.

 **********************************************************************

 Orbital symmetries:
       Occupied  (A) (A) (A) (A) (A) (A) (A) (A) (A) (A) (A) (A)
                 (A) (A) (A) (A) (A) (A) (A) (A) (A) (A) (A) (A)
                 (A) (A) (A) (A) (A) (A) (A) (A) (A) (A) (A) (A)
                 (A) (A) (A) (A) (A) (A) (A) (A) (A) (A) (A) (A)
                 (A) (A) (A) (A) (A) (A) (A) (A) (A) (A) (A) (A)
                 (A) (A) (A) (A) (A) (A) (A) (A) (A) (A) (A) (A)
                 (A) (A) (A) (A) (A) (A) (A) (A) (A) (A) (A) (A)
                 (A) (A) (A) (A) (A) (A) (A) (A) (A) (A) (A) (A)
                 (A) (A) (A) (A) (A) (A) (A) (A) (A) (A) (A) (A)
                 (A) (A) (A) (A) (A) (A) (A)
       Virtual   (A) (A) (A) (A) (A) (A) (A) (A) (A) (A) (A) (A)
                 (A) (A) (A) (A) (A) (A) (A) (A) (A) (A) (A) (A)
                 (A) (A) (A) (A) (A) (A) (A) (A) (A) (A) (A) (A)
                 (A) (A) (A) (A) (A) (A) (A) (A) (A) (A) (A) (A)
                 (A) (A) (A) (A) (A) (A) (A) (A) (A) (A) (A) (A)
                 (A) (A) (A) (A) (A) (A) (A) (A) (A) (A) (A) (A)
                 (A) (A) (A) (A) (A) (A) (A) (A) (A) (A) (A) (A)
                 (A) (A) (A) (A) (A) (A) (A) (A) (A) (A) (A) (A)
                 (A) (A) (A) (A) (A) (A) (A) (A) (A) (A) (A) (A)
                 (A) (A) (A) (A) (A) (A) (A) (A) (A) (A) (A) (A)
                 (A) (A) (A) (A) (A) (A) (A) (A) (A) (A) (A) (A)
                 (A) (A) (A) (A) (A) (A) (A) (A) (A) (A) (A) (A)
                 (A) (A) (A) (A) (A) (A) (A) (A) (A) (A) (A) (A)
                 (A) (A) (A) (A) (A) (A) (A) (A) (A) (A) (A) (A)
                 (A) (A) (A) (A) (A) (A) (A) (A) (A) (A) (A) (A)
                 (A) (A) (A) (A) (A) (A) (A) (A) (A) (A) (A) (A)
                 (A) (A) (A) (A) (A) (A) (A) (A) (A) (A) (A) (A)
                 (A) (A) (A) (A) (A) (A) (A) (A) (A) (A) (A) (A)
                 (A) (A) (A) (A) (A) (A) (A) (A) (A) (A) (A) (A)
                 (A) (A) (A) (A) (A) (A) (A) (A) (A) (A) (A) (A)
                 (A) (A) (A) (A) (A) (A) (A) (A) (A) (A) (A) (A)
                 (A) (A) (A) (A) (A) (A) (A) (A) (A) (A) (A) (A)
                 (A) (A) (A) (A) (A) (A) (A) (A) (A) (A) (A) (A)
                 (A) (A) (A) (A) (A) (A) (A) (A) (A) (A) (A) (A)
                 (A) (A) (A) (A) (A) (A) (A) (A) (A) (A) (A) (A)
                 (A) (A) (A) (A) (A) (A) (A) (A) (A) (A) (A) (A)
                 (A) (A) (A) (A) (A) (A) (A) (A) (A) (A) (A) (A)
                 (A) (A) (A) (A) (A) (A) (A) (A) (A) (A) (A) (A)
                 (A) (A) (A) (A) (A) (A) (A) (A) (A) (A) (A) (A)
                 (A) (A) (A) (A) (A) (A) (A) (A) (A) (A) (A) (A)
                 (A) (A) (A) (A) (A) (A) (A) (A) (A) (A) (A) (A)
                 (A) (A) (A) (A) (A) (A) (A) (A) (A) (A) (A) (A)
                 (A) (A) (A) (A) (A) (A) (A) (A) (A) (A) (A) (A)
                 (A) (A) (A) (A) (A) (A) (A) (A) (A) (A) (A) (A)
                 (A) (A) (A) (A) (A) (A) (A) (A) (A) (A)
 The electronic state is 1-A.
 Alpha  occ. eigenvalues --  -19.19737 -19.16719 -19.15863 -19.12662 -19.12415
 Alpha  occ. eigenvalues --  -10.27037 -10.26918 -10.26883 -10.26403 -10.25869
 Alpha  occ. eigenvalues --  -10.25820 -10.24967 -10.21276 -10.20731 -10.20677
 Alpha  occ. eigenvalues --  -10.20306 -10.19894 -10.19409 -10.19351 -10.19246
 Alpha  occ. eigenvalues --  -10.19243 -10.19119 -10.18797 -10.18704 -10.18426
 Alpha  occ. eigenvalues --  -10.18414 -10.18312 -10.18033 -10.17056 -10.16795
 Alpha  occ. eigenvalues --  -10.16619  -1.09121  -1.05928  -1.03139  -1.02565
 Alpha  occ. eigenvalues --   -1.02078  -0.86598  -0.83695  -0.82436  -0.81353
 Alpha  occ. eigenvalues --   -0.80171  -0.79517  -0.76750  -0.74193  -0.73154
 Alpha  occ. eigenvalues --   -0.72109  -0.71254  -0.70118  -0.69996  -0.67758
 Alpha  occ. eigenvalues --   -0.64929  -0.64605  -0.63051  -0.62054  -0.60539
 Alpha  occ. eigenvalues --   -0.59210  -0.58457  -0.56854  -0.54977  -0.53670
 Alpha  occ. eigenvalues --   -0.52917  -0.52054  -0.50497  -0.50404  -0.49424
 Alpha  occ. eigenvalues --   -0.47866  -0.47370  -0.46747  -0.46404  -0.45579
 Alpha  occ. eigenvalues --   -0.44993  -0.44794  -0.44364  -0.43878  -0.43623
 Alpha  occ. eigenvalues --   -0.42945  -0.42683  -0.41999  -0.41391  -0.41337
 Alpha  occ. eigenvalues --   -0.40812  -0.40659  -0.40427  -0.40064  -0.39584
 Alpha  occ. eigenvalues --   -0.39195  -0.38846  -0.38494  -0.38253  -0.37924
 Alpha  occ. eigenvalues --   -0.37699  -0.37549  -0.37327  -0.36764  -0.36680
 Alpha  occ. eigenvalues --   -0.36412  -0.36042  -0.35134  -0.34491  -0.34357
 Alpha  occ. eigenvalues --   -0.33838  -0.33609  -0.33351  -0.32798  -0.32039
 Alpha  occ. eigenvalues --   -0.31530  -0.31350  -0.31069  -0.28330  -0.27108
 Alpha  occ. eigenvalues --   -0.25645  -0.24541  -0.24108  -0.23267  -0.22684
 Alpha virt. eigenvalues --   -0.04485  -0.01189   0.00627   0.02344   0.05368
 Alpha virt. eigenvalues --    0.07207   0.08357   0.08641   0.09258   0.10045
 Alpha virt. eigenvalues --    0.10201   0.10443   0.11143   0.12210   0.12430
 Alpha virt. eigenvalues --    0.12723   0.13328   0.13892   0.14053   0.14145
 Alpha virt. eigenvalues --    0.14566   0.14627   0.15022   0.15331   0.15768
 Alpha virt. eigenvalues --    0.16163   0.16861   0.16985   0.17186   0.17348
 Alpha virt. eigenvalues --    0.17678   0.17777   0.18090   0.18316   0.18574
 Alpha virt. eigenvalues --    0.18738   0.18881   0.19351   0.20109   0.20280
 Alpha virt. eigenvalues --    0.20950   0.21057   0.21403   0.21871   0.22360
 Alpha virt. eigenvalues --    0.22731   0.23237   0.23843   0.24138   0.24250
 Alpha virt. eigenvalues --    0.24506   0.24961   0.25640   0.25737   0.26372
 Alpha virt. eigenvalues --    0.27274   0.27871   0.28322   0.28707   0.29862
 Alpha virt. eigenvalues --    0.30958   0.31608   0.32477   0.33041   0.34104
 Alpha virt. eigenvalues --    0.34981   0.36017   0.37534   0.38717   0.39871
 Alpha virt. eigenvalues --    0.42314   0.45447   0.46786   0.47942   0.48537
 Alpha virt. eigenvalues --    0.49098   0.50338   0.51163   0.51321   0.51563
 Alpha virt. eigenvalues --    0.51924   0.52116   0.52679   0.53245   0.53711
 Alpha virt. eigenvalues --    0.53797   0.54473   0.54685   0.55763   0.56107
 Alpha virt. eigenvalues --    0.56691   0.56881   0.57775   0.57984   0.58854
 Alpha virt. eigenvalues --    0.58990   0.59999   0.60451   0.60760   0.61485
 Alpha virt. eigenvalues --    0.61857   0.62665   0.63098   0.64402   0.64761
 Alpha virt. eigenvalues --    0.65491   0.65906   0.66537   0.66755   0.67152
 Alpha virt. eigenvalues --    0.68070   0.68256   0.68743   0.69091   0.69535
 Alpha virt. eigenvalues --    0.70523   0.71360   0.71741   0.72676   0.73618
 Alpha virt. eigenvalues --    0.74206   0.74870   0.75149   0.75550   0.76244
 Alpha virt. eigenvalues --    0.76572   0.77455   0.78428   0.79182   0.79753
 Alpha virt. eigenvalues --    0.80382   0.81441   0.81559   0.82135   0.82709
 Alpha virt. eigenvalues --    0.82888   0.83204   0.84178   0.84894   0.84961
 Alpha virt. eigenvalues --    0.85345   0.85934   0.86341   0.86586   0.87070
 Alpha virt. eigenvalues --    0.87387   0.87999   0.88225   0.88416   0.88730
 Alpha virt. eigenvalues --    0.89055   0.89551   0.89684   0.90047   0.90294
 Alpha virt. eigenvalues --    0.90759   0.90952   0.91304   0.91691   0.92165
 Alpha virt. eigenvalues --    0.92760   0.93011   0.93808   0.93899   0.94457
 Alpha virt. eigenvalues --    0.95197   0.95442   0.96312   0.96793   0.97574
 Alpha virt. eigenvalues --    0.97865   0.98649   0.98754   0.99376   0.99729
 Alpha virt. eigenvalues --    1.00466   1.01596   1.02048   1.03319   1.03630
 Alpha virt. eigenvalues --    1.04928   1.05869   1.06083   1.07139   1.08242
 Alpha virt. eigenvalues --    1.09393   1.09801   1.10831   1.11556   1.12070
 Alpha virt. eigenvalues --    1.13580   1.14807   1.15386   1.15987   1.17183
 Alpha virt. eigenvalues --    1.17665   1.18373   1.19173   1.20443   1.21247
 Alpha virt. eigenvalues --    1.22577   1.23182   1.24594   1.25525   1.26657
 Alpha virt. eigenvalues --    1.28992   1.29511   1.29676   1.30539   1.31919
 Alpha virt. eigenvalues --    1.34814   1.35438   1.36979   1.38250   1.39480
 Alpha virt. eigenvalues --    1.41086   1.41599   1.42438   1.45617   1.46681
 Alpha virt. eigenvalues --    1.47325   1.49159   1.49979   1.51315   1.51957
 Alpha virt. eigenvalues --    1.53435   1.54109   1.54656   1.55497   1.57882
 Alpha virt. eigenvalues --    1.59429   1.60654   1.61156   1.62858   1.63849
 Alpha virt. eigenvalues --    1.65773   1.66994   1.67409   1.68093   1.69549
 Alpha virt. eigenvalues --    1.70441   1.71798   1.72324   1.72535   1.72996
 Alpha virt. eigenvalues --    1.73267   1.74132   1.75388   1.75803   1.77416
 Alpha virt. eigenvalues --    1.77523   1.79249   1.79538   1.80635   1.81531
 Alpha virt. eigenvalues --    1.81757   1.82437   1.83108   1.85021   1.85629
 Alpha virt. eigenvalues --    1.85865   1.86049   1.86717   1.87180   1.88485
 Alpha virt. eigenvalues --    1.88819   1.89288   1.89852   1.90530   1.91416
 Alpha virt. eigenvalues --    1.92348   1.92643   1.93491   1.93753   1.94978
 Alpha virt. eigenvalues --    1.95208   1.95973   1.96941   1.97175   1.98106
 Alpha virt. eigenvalues --    1.98480   1.99427   1.99571   2.00483   2.01118
 Alpha virt. eigenvalues --    2.02028   2.03012   2.03557   2.03817   2.04605
 Alpha virt. eigenvalues --    2.05600   2.06016   2.07099   2.08889   2.09525
 Alpha virt. eigenvalues --    2.10498   2.11088   2.11572   2.11839   2.12573
 Alpha virt. eigenvalues --    2.13373   2.14411   2.15376   2.16581   2.18394
 Alpha virt. eigenvalues --    2.18908   2.19229   2.20826   2.21345   2.22039
 Alpha virt. eigenvalues --    2.23167   2.24168   2.24515   2.25547   2.26493
 Alpha virt. eigenvalues --    2.27523   2.28759   2.29363   2.30591   2.31928
 Alpha virt. eigenvalues --    2.32513   2.32607   2.33413   2.33654   2.34731
 Alpha virt. eigenvalues --    2.35518   2.36208   2.36988   2.37511   2.38281
 Alpha virt. eigenvalues --    2.39050   2.39648   2.41401   2.42639   2.42967
 Alpha virt. eigenvalues --    2.44956   2.45648   2.46723   2.47294   2.48553
 Alpha virt. eigenvalues --    2.49658   2.50238   2.51690   2.53781   2.54443
 Alpha virt. eigenvalues --    2.56012   2.56212   2.57998   2.59035   2.60090
 Alpha virt. eigenvalues --    2.61697   2.62052   2.63453   2.64310   2.65411
 Alpha virt. eigenvalues --    2.65643   2.67240   2.68109   2.68729   2.70820
 Alpha virt. eigenvalues --    2.71728   2.71908   2.72977   2.76003   2.77074
 Alpha virt. eigenvalues --    2.79016   2.79485   2.81511   2.83534   2.83848
 Alpha virt. eigenvalues --    2.87911   2.90288   2.92492   2.94182   2.95698
 Alpha virt. eigenvalues --    2.97585   2.99238   3.00483   3.02225   3.03162
 Alpha virt. eigenvalues --    3.04293   3.05883   3.12461   3.17489   3.20964
 Alpha virt. eigenvalues --    3.24371   3.28200   4.06002   4.07166   4.10451
 Alpha virt. eigenvalues --    4.12002   4.13153   4.13658   4.16741   4.18191
 Alpha virt. eigenvalues --    4.22107   4.23357   4.25370   4.29064   4.30195
 Alpha virt. eigenvalues --    4.31398   4.34861   4.36941   4.38931   4.44930
 Alpha virt. eigenvalues --    4.47652   4.49747   4.52276   4.55425   4.59061
 Alpha virt. eigenvalues --    4.61847   4.66164   4.66589   4.72164   4.79355
 Alpha virt. eigenvalues --    4.89913   5.01944   5.19248
          Condensed to atoms (all electrons):
 Mulliken atomic charges:
              1
     1  C   -0.183698
     2  C    0.193976
     3  C   -0.190001
     4  C    0.326737
     5  C   -0.049386
     6  C   -0.338730
     7  C    0.190571
     8  C    0.393071
     9  C   -0.093035
    10  C    0.427124
    11  C    0.422326
    12  O   -0.442276
    13  C   -0.170663
    14  C   -0.241653
    15  C   -0.457930
    16  O   -0.495635
    17  C   -0.162843
    18  C    0.305302
    19  O   -0.539922
    20  C   -0.321701
    21  O   -0.673164
    22  C   -0.310450
    23  C    0.076069
    24  O   -0.597091
    25  C    0.240385
    26  C   -0.546969
    27  C   -0.403946
    28  C   -0.468185
    29  C   -0.459882
    30  H    0.143915
    31  H    0.163976
    32  C   -0.519228
    33  H    0.123888
    34  H    0.146140
    35  H    0.187992
    36  H    0.150973
    37  H    0.142052
    38  H    0.147510
    39  H    0.150859
    40  H    0.156217
    41  H    0.163612
    42  H    0.151487
    43  H    0.167615
    44  H    0.433713
    45  H    0.169879
    46  H    0.162650
    47  H    0.136340
    48  H    0.166290
    49  H    0.174200
    50  H    0.161576
    51  H    0.142135
    52  H    0.141802
    53  H    0.192229
    54  H    0.155197
    55  H    0.144061
    56  H    0.151468
    57  H    0.162675
    58  H    0.163485
    59  H    0.158796
    60  H    0.156956
    61  H    0.149671
    62  C   -0.452471
    63  H    0.136838
    64  H    0.143501
    65  H    0.143597
 Sum of Mulliken atomic charges =   0.00000
 Mulliken charges with hydrogens summed into heavy atoms:
              1
     1  C   -0.059810
     2  C    0.193976
     3  C   -0.026025
     4  C    0.326737
     5  C   -0.049386
     6  C   -0.004598
     7  C    0.190571
     8  C    0.393071
     9  C   -0.093035
    10  C    0.427124
    11  C    0.422326
    12  O   -0.442276
    13  C   -0.019690
    14  C    0.047910
    15  C    0.012757
    16  O   -0.495635
    17  C   -0.018928
    18  C    0.305302
    19  O   -0.539922
    20  C   -0.002599
    21  O   -0.239451
    22  C    0.022079
    23  C    0.212409
    24  O   -0.597091
    25  C    0.240385
    26  C   -0.044903
    27  C   -0.120009
    28  C    0.023302
    29  C    0.017747
    32  C   -0.053804
    62  C   -0.028535
 Sum of Mulliken charges with hydrogens summed into heavy atoms =   0.00000
 Electronic spatial extent (au):  <R**2>=          11819.6521
 Charge=              0.0000 electrons
 Dipole moment (field-independent basis, Debye):
    X=             -3.3646    Y=              3.5655    Z=             -3.6534  Tot=              6.1140
 Quadrupole moment (field-independent basis, Debye-Ang):
   XX=           -181.9504   YY=           -177.5683   ZZ=           -187.5370
   XY=              6.5098   XZ=             -8.8317   YZ=              3.9837
 Traceless Quadrupole moment (field-independent basis, Debye-Ang):
   XX=              0.4015   YY=              4.7836   ZZ=             -5.1851
   XY=              6.5098   XZ=             -8.8317   YZ=              3.9837
 Octapole moment (field-independent basis, Debye-Ang**2):
  XXX=            -13.9653  YYY=             41.9385  ZZZ=            -21.7479  XYY=             -3.4259
  XXY=            -27.5195  XXZ=            -24.8894  XZZ=            -37.6153  YZZ=             18.2832
  YYZ=            -26.0124  XYZ=             -3.3175
 Hexadecapole moment (field-independent basis, Debye-Ang**3):
 XXXX=          -8679.4104 YYYY=          -3896.2900 ZZZZ=          -3220.8804 XXXY=            122.1115
 XXXZ=             13.8426 YYYX=             -5.4325 YYYZ=            -13.9484 ZZZX=            -12.3679
 ZZZY=              4.2963 XXYY=          -2029.7643 XXZZ=          -2006.7269 YYZZ=          -1173.1422
 XXYZ=             23.2835 YYXZ=              7.2749 ZZXY=             58.5353
 N-N= 3.493117616017D+03 E-N=-1.021237586765D+04  KE= 1.374464951943D+03
 1\1\GINC-B0801\FOpt\RB3LYP\6-31G(d)\C26H34O5\CAOFEI\24-Mar-2021\0\\# o
 pt rb3lyp/6-31g(d) geom=connectivity\\Title Card Required\\0,1\C,0.092
 0880646,-0.0969963875,0.0379512411\C,1.4284003422,-0.0649548234,0.0661
 852327\C,2.1909537199,1.2427846347,0.0735179706\C,1.3580859542,2.53596
 55105,-0.2077724658\C,-0.157604085,2.397781746,-0.5482305881\C,-0.7922
 971926,1.11564694,0.0563303729\C,2.1627875234,3.2787492419,-1.31205314
 37\C,1.7621328556,2.8822042706,-2.7142264456\C,0.5098219487,2.54380856
 09,-3.0904995656\C,-0.5330059305,2.4358058589,-2.0564224522\C,0.145218
 873,2.1563356261,-4.5081998352\O,-0.3273218829,1.0581833986,-4.7313605
 431\C,0.3574650919,3.2011606161,-5.6028047822\C,0.249196995,2.57057915
 7,-7.0006907621\C,-0.6448754242,4.3556176633,-5.3762118951\O,-1.717606
 4627,2.362498903,-2.3542539648\C,3.6088420217,2.737663147,-1.300369938
 5\C,4.0910826216,3.0117425243,-2.7453920083\O,2.8330326857,2.870070659
 1,-3.528831487\C,3.3849703507,1.260551678,-0.9270764813\O,2.0328250402
 ,4.6841018606,-1.200757273\C,-0.7596078697,3.6449721033,0.1511660627\C
 ,0.0908347549,3.7464788973,1.4197631338\O,1.421965343,3.3937657385,0.9
 673548967\C,0.0888735908,5.0851724233,2.1260124417\C,0.7938074274,6.25
 18871208,1.4790091531\C,-0.5592107706,5.2079875912,3.2887727585\C,4.60
 73572368,4.439443799,-2.9399154663\C,5.0707849346,1.9976206479,-3.3300
 193534\H,4.2285589766,3.2556688913,-0.5618432076\H,2.6015528119,1.3944
 313361,1.0818748067\C,2.2503312789,-1.327726499,0.1509847761\H,-0.4122
 853348,-1.0622825212,0.0571127861\H,-1.0909644118,1.3129138686,1.09710
 83135\H,-1.725125719,0.9281746263,-0.4841462358\H,1.3702070887,3.60688
 73203,-5.4657476568\H,0.8683029193,1.6657351984,-7.0230004696\H,-0.780
 3953133,2.2270314252,-7.1583286098\H,-0.4829664382,5.156416257,-6.1046
 037404\H,-0.5364298148,4.7878602142,-4.3763131191\H,-1.6758093812,3.99
 88539744,-5.4794810494\H,4.2797079448,0.7914143754,-0.5081104552\H,3.1
 100238918,0.6888123831,-1.8200477408\H,2.0032314576,4.8299124584,-0.23
 50836438\H,-1.8250651659,3.5223193306,0.3604846573\H,-0.6310611335,4.5
 362805078,-0.4704862547\H,-0.2341411255,2.9853795533,2.1416120074\H,1.
 8826207526,6.1087506233,1.493804145\H,0.495830929,6.391441858,0.432943
 3001\H,0.581756231,7.1813782868,2.0151433392\H,-1.0420885817,4.3602166
 705,3.7687038973\H,-0.6384343759,6.1633950818,3.800696843\H,3.90198418
 88,5.1682927862,-2.5368078777\H,4.7603442508,4.6380578276,-4.005836568
 8\H,5.5693886046,4.5617327408,-2.4289280968\H,6.0133776509,2.026064329
 5,-2.7722401729\H,5.2864357357,2.2446335313,-4.3744304569\H,4.67745502
 6,0.9790754229,-3.2964250904\H,1.6081094675,-2.2118772018,0.2075495652
 \H,2.9133232325,-1.4516130989,-0.7149694605\H,2.8953591223,-1.32110396
 4,1.0414860126\C,0.6738574082,3.5049573754,-8.1389460657\H,1.704057453
 5,3.8580229232,-8.0018600842\H,0.0283092936,4.3873637458,-8.2132145443
 \H,0.6283433213,2.9859992544,-9.1032286609\\Version=EM64L-G09RevB.01\S
 tate=1-A\HF=-1387.317317\RMSD=4.832e-09\RMSF=2.332e-06\Dipole=1.847624
 3,0.6303694,1.405366\Quadrupole=0.0690328,0.1256522,-0.194685,-4.92774
 3,-7.2012061,-3.5973367\PG=C01 [X(C26H34O5)]\\@


 WHEN YOU REACH FOR THE STARS, YOU MAY NOT QUITE GET ONE,
 BUT YOU WON'T COME UP WITH A HANDFUL OF MUD, EITHER.

                                         -- LEO BURNETT (AD AGENCY HEAD)
 Job cpu time:  0 days  6 hours 34 minutes 57.1 seconds.
 File lengths (MBytes):  RWF=    186 Int=      0 D2E=      0 Chk=     20 Scr=      1
 Normal termination of Gaussian 09 at Wed Mar 24 15:26:07 2021.
