 Entering Gaussian System, Link 0=g09
 Initial command:
 /public/software/g09/g09/l1.exe /tmp/Gau-31504.inp -scrdir=/tmp/
 Entering Link 1 = /public/software/g09/g09/l1.exe PID=     31505.
  
 Copyright (c) 1988,1990,1992,1993,1995,1998,2003,2009,2010,
            Gaussian, Inc.  All Rights Reserved.
  
 This is part of the Gaussian(R) 09 program.  It is based on
 the Gaussian(R) 03 system (copyright 2003, Gaussian, Inc.),
 the Gaussian(R) 98 system (copyright 1998, Gaussian, Inc.),
 the Gaussian(R) 94 system (copyright 1995, Gaussian, Inc.),
 the Gaussian 92(TM) system (copyright 1992, Gaussian, Inc.),
 the Gaussian 90(TM) system (copyright 1990, Gaussian, Inc.),
 the Gaussian 88(TM) system (copyright 1988, Gaussian, Inc.),
 the Gaussian 86(TM) system (copyright 1986, Carnegie Mellon
 University), and the Gaussian 82(TM) system (copyright 1983,
 Carnegie Mellon University). Gaussian is a federally registered
 trademark of Gaussian, Inc.
  
 This software contains proprietary and confidential information,
 including trade secrets, belonging to Gaussian, Inc.
  
 This software is provided under written license and may be
 used, copied, transmitted, or stored only in accord with that
 written license.
  
 The following legend is applicable only to US Government
 contracts under FAR:
  
                    RESTRICTED RIGHTS LEGEND
  
 Use, reproduction and disclosure by the US Government is
 subject to restrictions as set forth in subparagraphs (a)
 and (c) of the Commercial Computer Software - Restricted
 Rights clause in FAR 52.227-19.
  
 Gaussian, Inc.
 340 Quinnipiac St., Bldg. 40, Wallingford CT 06492
  
  
 ---------------------------------------------------------------
 Warning -- This program may not be used in any manner that
 competes with the business of Gaussian, Inc. or will provide
 assistance to any competitor of Gaussian, Inc.  The licensee
 of this program is prohibited from giving any competitor of
 Gaussian, Inc. access to this program.  By using this program,
 the user acknowledges that Gaussian, Inc. is engaged in the
 business of creating and licensing software in the field of
 computational chemistry and represents and warrants to the
 licensee that it is not a competitor of Gaussian, Inc. and that
 it will not use this program in any manner prohibited above.
 ---------------------------------------------------------------
  

 Cite this work as:
 Gaussian 09, Revision B.01,
 M. J. Frisch, G. W. Trucks, H. B. Schlegel, G. E. Scuseria, 
 M. A. Robb, J. R. Cheeseman, G. Scalmani, V. Barone, B. Mennucci, 
 G. A. Petersson, H. Nakatsuji, M. Caricato, X. Li, H. P. Hratchian, 
 A. F. Izmaylov, J. Bloino, G. Zheng, J. L. Sonnenberg, M. Hada, 
 M. Ehara, K. Toyota, R. Fukuda, J. Hasegawa, M. Ishida, T. Nakajima, 
 Y. Honda, O. Kitao, H. Nakai, T. Vreven, J. A. Montgomery, Jr., 
 J. E. Peralta, F. Ogliaro, M. Bearpark, J. J. Heyd, E. Brothers, 
 K. N. Kudin, V. N. Staroverov, T. Keith, R. Kobayashi, J. Normand, 
 K. Raghavachari, A. Rendell, J. C. Burant, S. S. Iyengar, J. Tomasi, 
 M. Cossi, N. Rega, J. M. Millam, M. Klene, J. E. Knox, J. B. Cross, 
 V. Bakken, C. Adamo, J. Jaramillo, R. Gomperts, R. E. Stratmann, 
 O. Yazyev, A. J. Austin, R. Cammi, C. Pomelli, J. W. Ochterski, 
 R. L. Martin, K. Morokuma, V. G. Zakrzewski, G. A. Voth, 
 P. Salvador, J. J. Dannenberg, S. Dapprich, A. D. Daniels, 
 O. Farkas, J. B. Foresman, J. V. Ortiz, J. Cioslowski, 
 and D. J. Fox, Gaussian, Inc., Wallingford CT, 2010.
 
 ******************************************
 Gaussian 09:  EM64L-G09RevB.01 12-Aug-2010
                24-Mar-2021 
 ******************************************
 %mem=600MW
 %nprocshared=10
 Will use up to   10 processors via shared memory.
 ---------------------------------------
 # opt rb3lyp/6-31g(d) geom=connectivity
 ---------------------------------------
 1/14=-1,18=20,19=15,26=3,38=1,57=2/1,3;
 2/9=110,12=2,17=6,18=5,40=1/2;
 3/5=1,6=6,7=1,11=2,16=1,25=1,30=1,71=1,74=-5,116=1/1,2,3;
 4//1;
 5/5=2,38=5/2;
 6/7=2,8=2,9=2,10=2,28=1/1;
 7//1,2,3,16;
 1/14=-1,18=20,19=15/3(2);
 2/9=110/2;
 99//99;
 2/9=110/2;
 3/5=1,6=6,7=1,11=2,16=1,25=1,30=1,71=1,74=-5,116=1/1,2,3;
 4/5=5,16=3/1;
 5/5=2,38=5/2;
 7//1,2,3,16;
 1/14=-1,18=20,19=15/3(-5);
 2/9=110/2;
 6/7=2,8=2,9=2,10=2,19=2,28=1/1;
 99/9=1/99;
 -------------------
 Title Card Required
 -------------------
 Symbolic Z-matrix:
 Charge =  0 Multiplicity = 1
 C                     0.        0.        0. 
 C                     1.3411    0.        0. 
 C                     2.1359    1.2839    0. 
 C                     1.3392    2.5842   -0.3084 
 C                    -0.1634    2.4699   -0.6184 
 C                    -0.8346    1.2383    0.0226 
 C                     2.1273    3.2725   -1.4416 
 C                     1.7405    2.8665   -2.8223 
 C                     0.5065    2.4694   -3.1464 
 C                    -0.5437    2.4999   -2.1068 
 C                     0.2215    1.9723   -4.5104 
 O                    -0.0854    0.7908   -4.6704 
 C                     0.2916    2.9704   -5.6613 
 C                     1.1647    2.3915   -6.7846 
 C                    -1.1308    3.2839   -6.1195 
 O                    -1.725     2.5804   -2.4516 
 C                     3.5387    2.7287   -1.4066 
 C                     4.0129    2.9265   -2.8621 
 O                     2.8289    2.7571   -3.6839 
 C                     3.3074    1.2645   -0.999 
 O                     2.0764    4.6852   -1.3507 
 C                    -0.7107    3.7503    0.0195 
 C                     0.1584    3.9188    1.2552 
 O                     1.4604    3.4485    0.8666 
 C                     0.2164    5.3318    1.7941 
 C                    -1.1119    5.9557    2.1341 
 C                     1.3568    6.0088    2.0168 
 C                     4.5772    4.3328   -3.1208 
 C                     5.061     1.9019   -3.3103 
 H                     4.1842    3.2407   -0.6839 
 H                     2.5744    1.3763    1.0047 
 C                     2.1091   -1.2924    0.0928 
 H                    -0.5427   -0.943     0.0455 
 H                    -1.783     1.0137   -0.482 
 H                    -1.1026    1.4247    1.0698 
 H                     0.7498    3.8986   -5.2986 
 H                     2.1101    2.0292   -6.3617 
 H                     0.6763    1.5184   -7.235 
 H                    -1.746     3.6196   -5.2773 
 H                    -1.1407    4.0774   -6.8727 
 H                    -1.6159    2.3996   -6.5473 
 H                     3.0509    0.6401   -1.8635 
 H                     4.2118    0.8367   -0.5515 
 H                     2.1386    4.8923   -0.397 
 H                    -1.7767    3.6893    0.2674 
 H                    -0.5888    4.6042   -0.6606 
 H                    -0.1884    3.2603    2.0608 
 H                    -1.7098    6.1081    1.2302 
 H                    -1.6706    5.3085    2.8183 
 H                    -0.9981    6.9297    2.6221 
 H                     2.3324    5.5752    1.8235 
 H                     1.3482    7.0167    2.4213 
 H                     4.8967    4.4329   -4.165 
 H                     5.4382    4.5399   -2.477 
 H                     3.8324    5.1186   -2.9706 
 H                     5.3894    2.1075   -4.3361 
 H                     5.9401    1.9193   -2.6581 
 H                     4.6589    0.8844   -3.3358 
 H                     1.4491   -2.1533    0.2447 
 H                     2.6793   -1.474    -0.8232 
 H                     2.8044   -1.2597    0.9379 
 C                     1.4841    3.4031   -7.8753 
 H                     1.966     4.2924   -7.457 
 H                     2.1671    2.9616   -8.6081 
 H                     0.5822    3.716    -8.4093 
 

 GradGradGradGradGradGradGradGradGradGradGradGradGradGradGradGradGradGrad
 Berny optimization.
 Initialization pass.
                           ----------------------------
                           !    Initial Parameters    !
                           ! (Angstroms and Degrees)  !
 --------------------------                            --------------------------
 ! Name  Definition              Value          Derivative Info.                !
 --------------------------------------------------------------------------------
 ! R1    R(1,2)                  1.3411         estimate D2E/DX2                !
 ! R2    R(1,6)                  1.4935         estimate D2E/DX2                !
 ! R3    R(1,33)                 1.089          estimate D2E/DX2                !
 ! R4    R(2,3)                  1.51           estimate D2E/DX2                !
 ! R5    R(2,32)                 1.5062         estimate D2E/DX2                !
 ! R6    R(3,4)                  1.5558         estimate D2E/DX2                !
 ! R7    R(3,20)                 1.5397         estimate D2E/DX2                !
 ! R8    R(3,31)                 1.1001         estimate D2E/DX2                !
 ! R9    R(4,5)                  1.5385         estimate D2E/DX2                !
 ! R10   R(4,7)                  1.5424         estimate D2E/DX2                !
 ! R11   R(4,24)                 1.4637         estimate D2E/DX2                !
 ! R12   R(5,6)                  1.5422         estimate D2E/DX2                !
 ! R13   R(5,10)                 1.5365         estimate D2E/DX2                !
 ! R14   R(5,22)                 1.5316         estimate D2E/DX2                !
 ! R15   R(6,34)                 1.0975         estimate D2E/DX2                !
 ! R16   R(6,35)                 1.0969         estimate D2E/DX2                !
 ! R17   R(7,8)                  1.4902         estimate D2E/DX2                !
 ! R18   R(7,17)                 1.5129         estimate D2E/DX2                !
 ! R19   R(7,21)                 1.4165         estimate D2E/DX2                !
 ! R20   R(8,9)                  1.3362         estimate D2E/DX2                !
 ! R21   R(8,19)                 1.3925         estimate D2E/DX2                !
 ! R22   R(9,10)                 1.478          estimate D2E/DX2                !
 ! R23   R(9,11)                 1.4795         estimate D2E/DX2                !
 ! R24   R(10,16)                1.2332         estimate D2E/DX2                !
 ! R25   R(11,12)                1.2311         estimate D2E/DX2                !
 ! R26   R(11,13)                1.525          estimate D2E/DX2                !
 ! R27   R(13,14)                1.536          estimate D2E/DX2                !
 ! R28   R(13,15)                1.5269         estimate D2E/DX2                !
 ! R29   R(13,36)                1.0968         estimate D2E/DX2                !
 ! R30   R(14,37)                1.0972         estimate D2E/DX2                !
 ! R31   R(14,38)                1.0971         estimate D2E/DX2                !
 ! R32   R(14,62)                1.5215         estimate D2E/DX2                !
 ! R33   R(15,39)                1.0957         estimate D2E/DX2                !
 ! R34   R(15,40)                1.0941         estimate D2E/DX2                !
 ! R35   R(15,41)                1.0956         estimate D2E/DX2                !
 ! R36   R(17,18)                1.5435         estimate D2E/DX2                !
 ! R37   R(17,20)                1.5374         estimate D2E/DX2                !
 ! R38   R(17,30)                1.096          estimate D2E/DX2                !
 ! R39   R(18,19)                1.4512         estimate D2E/DX2                !
 ! R40   R(18,28)                1.5372         estimate D2E/DX2                !
 ! R41   R(18,29)                1.5327         estimate D2E/DX2                !
 ! R42   R(20,42)                1.0968         estimate D2E/DX2                !
 ! R43   R(20,43)                1.096          estimate D2E/DX2                !
 ! R44   R(21,44)                0.9779         estimate D2E/DX2                !
 ! R45   R(22,23)                1.5201         estimate D2E/DX2                !
 ! R46   R(22,45)                1.0961         estimate D2E/DX2                !
 ! R47   R(22,46)                1.0984         estimate D2E/DX2                !
 ! R48   R(23,24)                1.4378         estimate D2E/DX2                !
 ! R49   R(23,25)                1.5134         estimate D2E/DX2                !
 ! R50   R(23,47)                1.0968         estimate D2E/DX2                !
 ! R51   R(25,26)                1.5064         estimate D2E/DX2                !
 ! R52   R(25,27)                1.3448         estimate D2E/DX2                !
 ! R53   R(26,48)                1.0944         estimate D2E/DX2                !
 ! R54   R(26,49)                1.0951         estimate D2E/DX2                !
 ! R55   R(26,50)                1.0953         estimate D2E/DX2                !
 ! R56   R(27,51)                1.085          estimate D2E/DX2                !
 ! R57   R(27,52)                1.0861         estimate D2E/DX2                !
 ! R58   R(28,53)                1.0966         estimate D2E/DX2                !
 ! R59   R(28,54)                1.0948         estimate D2E/DX2                !
 ! R60   R(28,55)                1.0931         estimate D2E/DX2                !
 ! R61   R(29,56)                1.0965         estimate D2E/DX2                !
 ! R62   R(29,57)                1.0948         estimate D2E/DX2                !
 ! R63   R(29,58)                1.0944         estimate D2E/DX2                !
 ! R64   R(32,59)                1.0954         estimate D2E/DX2                !
 ! R65   R(32,60)                1.0941         estimate D2E/DX2                !
 ! R66   R(32,61)                1.0949         estimate D2E/DX2                !
 ! R67   R(62,63)                1.0946         estimate D2E/DX2                !
 ! R68   R(62,64)                1.0947         estimate D2E/DX2                !
 ! R69   R(62,65)                1.0938         estimate D2E/DX2                !
 ! A1    A(2,1,6)              123.9751         estimate D2E/DX2                !
 ! A2    A(2,1,33)             119.8918         estimate D2E/DX2                !
 ! A3    A(6,1,33)             116.0319         estimate D2E/DX2                !
 ! A4    A(1,2,3)              121.7596         estimate D2E/DX2                !
 ! A5    A(1,2,32)             120.656          estimate D2E/DX2                !
 ! A6    A(3,2,32)             117.4631         estimate D2E/DX2                !
 ! A7    A(2,3,4)              116.1729         estimate D2E/DX2                !
 ! A8    A(2,3,20)             112.9397         estimate D2E/DX2                !
 ! A9    A(2,3,31)             106.333          estimate D2E/DX2                !
 ! A10   A(4,3,20)             105.7553         estimate D2E/DX2                !
 ! A11   A(4,3,31)             108.3574         estimate D2E/DX2                !
 ! A12   A(20,3,31)            106.8777         estimate D2E/DX2                !
 ! A13   A(3,4,5)              118.5532         estimate D2E/DX2                !
 ! A14   A(3,4,7)              104.8889         estimate D2E/DX2                !
 ! A15   A(3,4,24)             106.9769         estimate D2E/DX2                !
 ! A16   A(5,4,7)              112.591          estimate D2E/DX2                !
 ! A17   A(5,4,24)             106.6485         estimate D2E/DX2                !
 ! A18   A(7,4,24)             106.4977         estimate D2E/DX2                !
 ! A19   A(4,5,6)              113.6195         estimate D2E/DX2                !
 ! A20   A(4,5,10)             115.8152         estimate D2E/DX2                !
 ! A21   A(4,5,22)             101.7106         estimate D2E/DX2                !
 ! A22   A(6,5,10)             108.0898         estimate D2E/DX2                !
 ! A23   A(6,5,22)             109.8155         estimate D2E/DX2                !
 ! A24   A(10,5,22)            107.3783         estimate D2E/DX2                !
 ! A25   A(1,6,5)              114.372          estimate D2E/DX2                !
 ! A26   A(1,6,34)             107.8346         estimate D2E/DX2                !
 ! A27   A(1,6,35)             106.9706         estimate D2E/DX2                !
 ! A28   A(5,6,34)             110.3916         estimate D2E/DX2                !
 ! A29   A(5,6,35)             111.5581         estimate D2E/DX2                !
 ! A30   A(34,6,35)            105.2233         estimate D2E/DX2                !
 ! A31   A(4,7,8)              115.2456         estimate D2E/DX2                !
 ! A32   A(4,7,17)             107.4137         estimate D2E/DX2                !
 ! A33   A(4,7,21)             112.305          estimate D2E/DX2                !
 ! A34   A(8,7,17)              99.5348         estimate D2E/DX2                !
 ! A35   A(8,7,21)             108.7737         estimate D2E/DX2                !
 ! A36   A(17,7,21)            112.9853         estimate D2E/DX2                !
 ! A37   A(7,8,9)              123.0512         estimate D2E/DX2                !
 ! A38   A(7,8,19)             113.0671         estimate D2E/DX2                !
 ! A39   A(9,8,19)             123.2584         estimate D2E/DX2                !
 ! A40   A(8,9,10)             118.6491         estimate D2E/DX2                !
 ! A41   A(8,9,11)             120.0908         estimate D2E/DX2                !
 ! A42   A(10,9,11)            121.2333         estimate D2E/DX2                !
 ! A43   A(5,10,9)             120.3361         estimate D2E/DX2                !
 ! A44   A(5,10,16)            120.6106         estimate D2E/DX2                !
 ! A45   A(9,10,16)            119.0328         estimate D2E/DX2                !
 ! A46   A(9,11,12)            119.3594         estimate D2E/DX2                !
 ! A47   A(9,11,13)            117.8408         estimate D2E/DX2                !
 ! A48   A(12,11,13)           122.7837         estimate D2E/DX2                !
 ! A49   A(11,13,14)           109.3522         estimate D2E/DX2                !
 ! A50   A(11,13,15)           108.5434         estimate D2E/DX2                !
 ! A51   A(11,13,36)           108.8749         estimate D2E/DX2                !
 ! A52   A(14,13,15)           112.7959         estimate D2E/DX2                !
 ! A53   A(14,13,36)           108.8637         estimate D2E/DX2                !
 ! A54   A(15,13,36)           108.3388         estimate D2E/DX2                !
 ! A55   A(13,14,37)           109.4118         estimate D2E/DX2                !
 ! A56   A(13,14,38)           110.311          estimate D2E/DX2                !
 ! A57   A(13,14,62)           113.1412         estimate D2E/DX2                !
 ! A58   A(37,14,38)           106.2018         estimate D2E/DX2                !
 ! A59   A(37,14,62)           108.3583         estimate D2E/DX2                !
 ! A60   A(38,14,62)           109.1636         estimate D2E/DX2                !
 ! A61   A(13,15,39)           110.8118         estimate D2E/DX2                !
 ! A62   A(13,15,40)           111.3411         estimate D2E/DX2                !
 ! A63   A(13,15,41)           111.3413         estimate D2E/DX2                !
 ! A64   A(39,15,40)           107.5703         estimate D2E/DX2                !
 ! A65   A(39,15,41)           107.3876         estimate D2E/DX2                !
 ! A66   A(40,15,41)           108.2141         estimate D2E/DX2                !
 ! A67   A(7,17,18)            102.6341         estimate D2E/DX2                !
 ! A68   A(7,17,20)            102.0113         estimate D2E/DX2                !
 ! A69   A(7,17,30)            113.3779         estimate D2E/DX2                !
 ! A70   A(18,17,20)           114.7259         estimate D2E/DX2                !
 ! A71   A(18,17,30)           112.396          estimate D2E/DX2                !
 ! A72   A(20,17,30)           111.0216         estimate D2E/DX2                !
 ! A73   A(17,18,19)           105.5684         estimate D2E/DX2                !
 ! A74   A(17,18,28)           112.874          estimate D2E/DX2                !
 ! A75   A(17,18,29)           113.5884         estimate D2E/DX2                !
 ! A76   A(19,18,28)           108.1192         estimate D2E/DX2                !
 ! A77   A(19,18,29)           108.3179         estimate D2E/DX2                !
 ! A78   A(28,18,29)           108.1388         estimate D2E/DX2                !
 ! A79   A(8,19,18)            106.1502         estimate D2E/DX2                !
 ! A80   A(3,20,17)            105.9315         estimate D2E/DX2                !
 ! A81   A(3,20,42)            109.9151         estimate D2E/DX2                !
 ! A82   A(3,20,43)            111.5826         estimate D2E/DX2                !
 ! A83   A(17,20,42)           111.6169         estimate D2E/DX2                !
 ! A84   A(17,20,43)           110.8458         estimate D2E/DX2                !
 ! A85   A(42,20,43)           107.0129         estimate D2E/DX2                !
 ! A86   A(7,21,44)            105.7537         estimate D2E/DX2                !
 ! A87   A(5,22,23)            103.1164         estimate D2E/DX2                !
 ! A88   A(5,22,45)            113.2769         estimate D2E/DX2                !
 ! A89   A(5,22,46)            110.631          estimate D2E/DX2                !
 ! A90   A(23,22,45)           112.231          estimate D2E/DX2                !
 ! A91   A(23,22,46)           110.7137         estimate D2E/DX2                !
 ! A92   A(45,22,46)           106.9306         estimate D2E/DX2                !
 ! A93   A(22,23,24)           105.1749         estimate D2E/DX2                !
 ! A94   A(22,23,25)           114.5115         estimate D2E/DX2                !
 ! A95   A(22,23,47)           110.4729         estimate D2E/DX2                !
 ! A96   A(24,23,25)           111.5261         estimate D2E/DX2                !
 ! A97   A(24,23,47)           106.7659         estimate D2E/DX2                !
 ! A98   A(25,23,47)           108.1279         estimate D2E/DX2                !
 ! A99   A(4,24,23)            109.5802         estimate D2E/DX2                !
 ! A100  A(23,25,26)           115.6753         estimate D2E/DX2                !
 ! A101  A(23,25,27)           124.1598         estimate D2E/DX2                !
 ! A102  A(26,25,27)           120.1244         estimate D2E/DX2                !
 ! A103  A(25,26,48)           110.6703         estimate D2E/DX2                !
 ! A104  A(25,26,49)           110.2504         estimate D2E/DX2                !
 ! A105  A(25,26,50)           112.1623         estimate D2E/DX2                !
 ! A106  A(48,26,49)           108.6394         estimate D2E/DX2                !
 ! A107  A(48,26,50)           107.5117         estimate D2E/DX2                !
 ! A108  A(49,26,50)           107.4689         estimate D2E/DX2                !
 ! A109  A(25,27,51)           122.1297         estimate D2E/DX2                !
 ! A110  A(25,27,52)           121.4769         estimate D2E/DX2                !
 ! A111  A(51,27,52)           116.3818         estimate D2E/DX2                !
 ! A112  A(18,28,53)           110.5315         estimate D2E/DX2                !
 ! A113  A(18,28,54)           111.2707         estimate D2E/DX2                !
 ! A114  A(18,28,55)           112.6076         estimate D2E/DX2                !
 ! A115  A(53,28,54)           108.2731         estimate D2E/DX2                !
 ! A116  A(53,28,55)           105.2933         estimate D2E/DX2                !
 ! A117  A(54,28,55)           108.6064         estimate D2E/DX2                !
 ! A118  A(18,29,56)           110.6719         estimate D2E/DX2                !
 ! A119  A(18,29,57)           111.3633         estimate D2E/DX2                !
 ! A120  A(18,29,58)           112.1538         estimate D2E/DX2                !
 ! A121  A(56,29,57)           108.2913         estimate D2E/DX2                !
 ! A122  A(56,29,58)           105.2228         estimate D2E/DX2                !
 ! A123  A(57,29,58)           108.8873         estimate D2E/DX2                !
 ! A124  A(2,32,59)            112.0671         estimate D2E/DX2                !
 ! A125  A(2,32,60)            110.8884         estimate D2E/DX2                !
 ! A126  A(2,32,61)            110.2267         estimate D2E/DX2                !
 ! A127  A(59,32,60)           107.4368         estimate D2E/DX2                !
 ! A128  A(59,32,61)           107.4025         estimate D2E/DX2                !
 ! A129  A(60,32,61)           108.6756         estimate D2E/DX2                !
 ! A130  A(14,62,63)           111.0176         estimate D2E/DX2                !
 ! A131  A(14,62,64)           110.041          estimate D2E/DX2                !
 ! A132  A(14,62,65)           111.5346         estimate D2E/DX2                !
 ! A133  A(63,62,64)           107.9872         estimate D2E/DX2                !
 ! A134  A(63,62,65)           108.4917         estimate D2E/DX2                !
 ! A135  A(64,62,65)           107.638          estimate D2E/DX2                !
 ! D1    D(6,1,2,3)             -1.0456         estimate D2E/DX2                !
 ! D2    D(6,1,2,32)           174.8474         estimate D2E/DX2                !
 ! D3    D(33,1,2,3)          -177.2376         estimate D2E/DX2                !
 ! D4    D(33,1,2,32)           -1.3446         estimate D2E/DX2                !
 ! D5    D(2,1,6,5)             28.1799         estimate D2E/DX2                !
 ! D6    D(2,1,6,34)           151.3816         estimate D2E/DX2                !
 ! D7    D(2,1,6,35)           -95.8767         estimate D2E/DX2                !
 ! D8    D(33,1,6,5)          -155.4941         estimate D2E/DX2                !
 ! D9    D(33,1,6,34)          -32.2924         estimate D2E/DX2                !
 ! D10   D(33,1,6,35)           80.4493         estimate D2E/DX2                !
 ! D11   D(1,2,3,4)            -12.76           estimate D2E/DX2                !
 ! D12   D(1,2,3,20)          -135.2084         estimate D2E/DX2                !
 ! D13   D(1,2,3,31)           107.8843         estimate D2E/DX2                !
 ! D14   D(32,2,3,4)           171.2216         estimate D2E/DX2                !
 ! D15   D(32,2,3,20)           48.7731         estimate D2E/DX2                !
 ! D16   D(32,2,3,31)          -68.1341         estimate D2E/DX2                !
 ! D17   D(1,2,32,59)           -5.0781         estimate D2E/DX2                !
 ! D18   D(1,2,32,60)          114.9746         estimate D2E/DX2                !
 ! D19   D(1,2,32,61)         -124.636          estimate D2E/DX2                !
 ! D20   D(3,2,32,59)          170.9866         estimate D2E/DX2                !
 ! D21   D(3,2,32,60)          -68.9607         estimate D2E/DX2                !
 ! D22   D(3,2,32,61)           51.4287         estimate D2E/DX2                !
 ! D23   D(2,3,4,5)             -1.4184         estimate D2E/DX2                !
 ! D24   D(2,3,4,7)           -128.0888         estimate D2E/DX2                !
 ! D25   D(2,3,4,24)           119.0563         estimate D2E/DX2                !
 ! D26   D(20,3,4,5)           124.7318         estimate D2E/DX2                !
 ! D27   D(20,3,4,7)            -1.9387         estimate D2E/DX2                !
 ! D28   D(20,3,4,24)         -114.7935         estimate D2E/DX2                !
 ! D29   D(31,3,4,5)          -120.9718         estimate D2E/DX2                !
 ! D30   D(31,3,4,7)           112.3578         estimate D2E/DX2                !
 ! D31   D(31,3,4,24)           -0.4971         estimate D2E/DX2                !
 ! D32   D(2,3,20,17)          152.0153         estimate D2E/DX2                !
 ! D33   D(2,3,20,42)           31.2917         estimate D2E/DX2                !
 ! D34   D(2,3,20,43)          -87.2616         estimate D2E/DX2                !
 ! D35   D(4,3,20,17)           23.9134         estimate D2E/DX2                !
 ! D36   D(4,3,20,42)          -96.8103         estimate D2E/DX2                !
 ! D37   D(4,3,20,43)          144.6364         estimate D2E/DX2                !
 ! D38   D(31,3,20,17)         -91.3998         estimate D2E/DX2                !
 ! D39   D(31,3,20,42)         147.8765         estimate D2E/DX2                !
 ! D40   D(31,3,20,43)          29.3233         estimate D2E/DX2                !
 ! D41   D(3,4,5,6)             26.7782         estimate D2E/DX2                !
 ! D42   D(3,4,5,10)           -99.2376         estimate D2E/DX2                !
 ! D43   D(3,4,5,22)           144.7149         estimate D2E/DX2                !
 ! D44   D(7,4,5,6)            149.683          estimate D2E/DX2                !
 ! D45   D(7,4,5,10)            23.6672         estimate D2E/DX2                !
 ! D46   D(7,4,5,22)           -92.3803         estimate D2E/DX2                !
 ! D47   D(24,4,5,6)           -93.8646         estimate D2E/DX2                !
 ! D48   D(24,4,5,10)          140.1197         estimate D2E/DX2                !
 ! D49   D(24,4,5,22)           24.0722         estimate D2E/DX2                !
 ! D50   D(3,4,7,8)             88.6419         estimate D2E/DX2                !
 ! D51   D(3,4,7,17)           -21.2246         estimate D2E/DX2                !
 ! D52   D(3,4,7,21)          -146.0458         estimate D2E/DX2                !
 ! D53   D(5,4,7,8)            -41.6216         estimate D2E/DX2                !
 ! D54   D(5,4,7,17)          -151.4881         estimate D2E/DX2                !
 ! D55   D(5,4,7,21)            83.6907         estimate D2E/DX2                !
 ! D56   D(24,4,7,8)          -158.1641         estimate D2E/DX2                !
 ! D57   D(24,4,7,17)           91.9694         estimate D2E/DX2                !
 ! D58   D(24,4,7,21)          -32.8518         estimate D2E/DX2                !
 ! D59   D(3,4,24,23)         -130.5339         estimate D2E/DX2                !
 ! D60   D(5,4,24,23)           -2.7337         estimate D2E/DX2                !
 ! D61   D(7,4,24,23)          117.7132         estimate D2E/DX2                !
 ! D62   D(4,5,6,1)            -39.2292         estimate D2E/DX2                !
 ! D63   D(4,5,6,34)          -161.0402         estimate D2E/DX2                !
 ! D64   D(4,5,6,35)            82.3398         estimate D2E/DX2                !
 ! D65   D(10,5,6,1)            90.7751         estimate D2E/DX2                !
 ! D66   D(10,5,6,34)          -31.0359         estimate D2E/DX2                !
 ! D67   D(10,5,6,35)         -147.656          estimate D2E/DX2                !
 ! D68   D(22,5,6,1)          -152.3729         estimate D2E/DX2                !
 ! D69   D(22,5,6,34)           85.8161         estimate D2E/DX2                !
 ! D70   D(22,5,6,35)          -30.8039         estimate D2E/DX2                !
 ! D71   D(4,5,10,9)             7.3036         estimate D2E/DX2                !
 ! D72   D(4,5,10,16)         -171.0348         estimate D2E/DX2                !
 ! D73   D(6,5,10,9)          -121.4697         estimate D2E/DX2                !
 ! D74   D(6,5,10,16)           60.192          estimate D2E/DX2                !
 ! D75   D(22,5,10,9)          120.1119         estimate D2E/DX2                !
 ! D76   D(22,5,10,16)         -58.2265         estimate D2E/DX2                !
 ! D77   D(4,5,22,23)          -35.4874         estimate D2E/DX2                !
 ! D78   D(4,5,22,45)         -157.0303         estimate D2E/DX2                !
 ! D79   D(4,5,22,46)           82.9231         estimate D2E/DX2                !
 ! D80   D(6,5,22,23)           85.1512         estimate D2E/DX2                !
 ! D81   D(6,5,22,45)          -36.3918         estimate D2E/DX2                !
 ! D82   D(6,5,22,46)         -156.4383         estimate D2E/DX2                !
 ! D83   D(10,5,22,23)        -157.5517         estimate D2E/DX2                !
 ! D84   D(10,5,22,45)          80.9054         estimate D2E/DX2                !
 ! D85   D(10,5,22,46)         -39.1411         estimate D2E/DX2                !
 ! D86   D(4,7,8,9)             29.6449         estimate D2E/DX2                !
 ! D87   D(4,7,8,19)          -141.5617         estimate D2E/DX2                !
 ! D88   D(17,7,8,9)           144.1459         estimate D2E/DX2                !
 ! D89   D(17,7,8,19)          -27.0607         estimate D2E/DX2                !
 ! D90   D(21,7,8,9)           -97.4745         estimate D2E/DX2                !
 ! D91   D(21,7,8,19)           91.3189         estimate D2E/DX2                !
 ! D92   D(4,7,17,18)          154.6632         estimate D2E/DX2                !
 ! D93   D(4,7,17,20)           35.589          estimate D2E/DX2                !
 ! D94   D(4,7,17,30)          -83.8517         estimate D2E/DX2                !
 ! D95   D(8,7,17,18)           34.2702         estimate D2E/DX2                !
 ! D96   D(8,7,17,20)          -84.8041         estimate D2E/DX2                !
 ! D97   D(8,7,17,30)          155.7553         estimate D2E/DX2                !
 ! D98   D(21,7,17,18)         -80.9267         estimate D2E/DX2                !
 ! D99   D(21,7,17,20)         159.999          estimate D2E/DX2                !
 ! D100  D(21,7,17,30)          40.5584         estimate D2E/DX2                !
 ! D101  D(4,7,21,44)           38.9426         estimate D2E/DX2                !
 ! D102  D(8,7,21,44)          167.7234         estimate D2E/DX2                !
 ! D103  D(17,7,21,44)         -82.7512         estimate D2E/DX2                !
 ! D104  D(7,8,9,10)             3.2991         estimate D2E/DX2                !
 ! D105  D(7,8,9,11)          -174.8437         estimate D2E/DX2                !
 ! D106  D(19,8,9,10)          173.616          estimate D2E/DX2                !
 ! D107  D(19,8,9,11)           -4.5269         estimate D2E/DX2                !
 ! D108  D(7,8,19,18)            6.9547         estimate D2E/DX2                !
 ! D109  D(9,8,19,18)         -164.2309         estimate D2E/DX2                !
 ! D110  D(8,9,10,5)           -22.4755         estimate D2E/DX2                !
 ! D111  D(8,9,10,16)          155.8889         estimate D2E/DX2                !
 ! D112  D(11,9,10,5)          155.6453         estimate D2E/DX2                !
 ! D113  D(11,9,10,16)         -25.9904         estimate D2E/DX2                !
 ! D114  D(8,9,11,12)          113.5343         estimate D2E/DX2                !
 ! D115  D(8,9,11,13)          -67.883          estimate D2E/DX2                !
 ! D116  D(10,9,11,12)         -64.5596         estimate D2E/DX2                !
 ! D117  D(10,9,11,13)         114.0231         estimate D2E/DX2                !
 ! D118  D(9,11,13,14)         130.0318         estimate D2E/DX2                !
 ! D119  D(9,11,13,15)        -106.536          estimate D2E/DX2                !
 ! D120  D(9,11,13,36)          11.2005         estimate D2E/DX2                !
 ! D121  D(12,11,13,14)        -51.4375         estimate D2E/DX2                !
 ! D122  D(12,11,13,15)         71.9947         estimate D2E/DX2                !
 ! D123  D(12,11,13,36)       -170.2688         estimate D2E/DX2                !
 ! D124  D(11,13,14,37)        -49.5346         estimate D2E/DX2                !
 ! D125  D(11,13,14,38)         66.9451         estimate D2E/DX2                !
 ! D126  D(11,13,14,62)       -170.4497         estimate D2E/DX2                !
 ! D127  D(15,13,14,37)       -170.4141         estimate D2E/DX2                !
 ! D128  D(15,13,14,38)        -53.9344         estimate D2E/DX2                !
 ! D129  D(15,13,14,62)         68.6707         estimate D2E/DX2                !
 ! D130  D(36,13,14,37)         69.3036         estimate D2E/DX2                !
 ! D131  D(36,13,14,38)       -174.2167         estimate D2E/DX2                !
 ! D132  D(36,13,14,62)        -51.6115         estimate D2E/DX2                !
 ! D133  D(11,13,15,39)         54.2023         estimate D2E/DX2                !
 ! D134  D(11,13,15,40)        173.8874         estimate D2E/DX2                !
 ! D135  D(11,13,15,41)        -65.2528         estimate D2E/DX2                !
 ! D136  D(14,13,15,39)        175.5419         estimate D2E/DX2                !
 ! D137  D(14,13,15,40)        -64.773          estimate D2E/DX2                !
 ! D138  D(14,13,15,41)         56.0869         estimate D2E/DX2                !
 ! D139  D(36,13,15,39)        -63.875          estimate D2E/DX2                !
 ! D140  D(36,13,15,40)         55.81           estimate D2E/DX2                !
 ! D141  D(36,13,15,41)        176.6699         estimate D2E/DX2                !
 ! D142  D(13,14,62,63)         56.2895         estimate D2E/DX2                !
 ! D143  D(13,14,62,64)        175.7806         estimate D2E/DX2                !
 ! D144  D(13,14,62,65)        -64.8341         estimate D2E/DX2                !
 ! D145  D(37,14,62,63)        -65.2205         estimate D2E/DX2                !
 ! D146  D(37,14,62,64)         54.2707         estimate D2E/DX2                !
 ! D147  D(37,14,62,65)        173.656          estimate D2E/DX2                !
 ! D148  D(38,14,62,63)        179.5304         estimate D2E/DX2                !
 ! D149  D(38,14,62,64)        -60.9784         estimate D2E/DX2                !
 ! D150  D(38,14,62,65)         58.4069         estimate D2E/DX2                !
 ! D151  D(7,17,18,19)         -32.7034         estimate D2E/DX2                !
 ! D152  D(7,17,18,28)          85.1969         estimate D2E/DX2                !
 ! D153  D(7,17,18,29)        -151.2362         estimate D2E/DX2                !
 ! D154  D(20,17,18,19)         77.0526         estimate D2E/DX2                !
 ! D155  D(20,17,18,28)       -165.0471         estimate D2E/DX2                !
 ! D156  D(20,17,18,29)        -41.4802         estimate D2E/DX2                !
 ! D157  D(30,17,18,19)       -154.8565         estimate D2E/DX2                !
 ! D158  D(30,17,18,28)        -36.9562         estimate D2E/DX2                !
 ! D159  D(30,17,18,29)         86.6107         estimate D2E/DX2                !
 ! D160  D(7,17,20,3)          -36.4628         estimate D2E/DX2                !
 ! D161  D(7,17,20,42)          83.1507         estimate D2E/DX2                !
 ! D162  D(7,17,20,43)        -157.6626         estimate D2E/DX2                !
 ! D163  D(18,17,20,3)        -146.5938         estimate D2E/DX2                !
 ! D164  D(18,17,20,42)        -26.9803         estimate D2E/DX2                !
 ! D165  D(18,17,20,43)         92.2064         estimate D2E/DX2                !
 ! D166  D(30,17,20,3)          84.6258         estimate D2E/DX2                !
 ! D167  D(30,17,20,42)       -155.7606         estimate D2E/DX2                !
 ! D168  D(30,17,20,43)        -36.574          estimate D2E/DX2                !
 ! D169  D(17,18,19,8)          16.2795         estimate D2E/DX2                !
 ! D170  D(28,18,19,8)        -104.7668         estimate D2E/DX2                !
 ! D171  D(29,18,19,8)         138.2726         estimate D2E/DX2                !
 ! D172  D(17,18,28,53)       -179.6912         estimate D2E/DX2                !
 ! D173  D(17,18,28,54)         59.9718         estimate D2E/DX2                !
 ! D174  D(17,18,28,55)        -62.2365         estimate D2E/DX2                !
 ! D175  D(19,18,28,53)        -63.2971         estimate D2E/DX2                !
 ! D176  D(19,18,28,54)        176.3658         estimate D2E/DX2                !
 ! D177  D(19,18,28,55)         54.1576         estimate D2E/DX2                !
 ! D178  D(29,18,28,53)         53.7793         estimate D2E/DX2                !
 ! D179  D(29,18,28,54)        -66.5578         estimate D2E/DX2                !
 ! D180  D(29,18,28,55)        171.234          estimate D2E/DX2                !
 ! D181  D(17,18,29,56)       -177.9971         estimate D2E/DX2                !
 ! D182  D(17,18,29,57)        -57.481          estimate D2E/DX2                !
 ! D183  D(17,18,29,58)         64.8329         estimate D2E/DX2                !
 ! D184  D(19,18,29,56)         65.0634         estimate D2E/DX2                !
 ! D185  D(19,18,29,57)       -174.4205         estimate D2E/DX2                !
 ! D186  D(19,18,29,58)        -52.1066         estimate D2E/DX2                !
 ! D187  D(28,18,29,56)        -51.8847         estimate D2E/DX2                !
 ! D188  D(28,18,29,57)         68.6314         estimate D2E/DX2                !
 ! D189  D(28,18,29,58)       -169.0547         estimate D2E/DX2                !
 ! D190  D(5,22,23,24)          35.1051         estimate D2E/DX2                !
 ! D191  D(5,22,23,25)         157.8913         estimate D2E/DX2                !
 ! D192  D(5,22,23,47)         -79.7481         estimate D2E/DX2                !
 ! D193  D(45,22,23,24)        157.3529         estimate D2E/DX2                !
 ! D194  D(45,22,23,25)        -79.8609         estimate D2E/DX2                !
 ! D195  D(45,22,23,47)         42.4997         estimate D2E/DX2                !
 ! D196  D(46,22,23,24)        -83.2476         estimate D2E/DX2                !
 ! D197  D(46,22,23,25)         39.5386         estimate D2E/DX2                !
 ! D198  D(46,22,23,47)        161.8991         estimate D2E/DX2                !
 ! D199  D(22,23,24,4)         -20.2513         estimate D2E/DX2                !
 ! D200  D(25,23,24,4)        -144.937          estimate D2E/DX2                !
 ! D201  D(47,23,24,4)          97.1488         estimate D2E/DX2                !
 ! D202  D(22,23,25,26)         56.3405         estimate D2E/DX2                !
 ! D203  D(22,23,25,27)       -125.9788         estimate D2E/DX2                !
 ! D204  D(24,23,25,26)        175.6229         estimate D2E/DX2                !
 ! D205  D(24,23,25,27)         -6.6964         estimate D2E/DX2                !
 ! D206  D(47,23,25,26)        -67.2851         estimate D2E/DX2                !
 ! D207  D(47,23,25,27)        110.3956         estimate D2E/DX2                !
 ! D208  D(23,25,26,48)        -66.3726         estimate D2E/DX2                !
 ! D209  D(23,25,26,49)         53.8455         estimate D2E/DX2                !
 ! D210  D(23,25,26,50)        173.5657         estimate D2E/DX2                !
 ! D211  D(27,25,26,48)        115.8462         estimate D2E/DX2                !
 ! D212  D(27,25,26,49)       -123.9357         estimate D2E/DX2                !
 ! D213  D(27,25,26,50)         -4.2155         estimate D2E/DX2                !
 ! D214  D(23,25,27,51)         -0.2192         estimate D2E/DX2                !
 ! D215  D(23,25,27,52)       -178.9313         estimate D2E/DX2                !
 ! D216  D(26,25,27,51)        177.3641         estimate D2E/DX2                !
 ! D217  D(26,25,27,52)         -1.3481         estimate D2E/DX2                !
 --------------------------------------------------------------------------------
 Trust Radius=3.00D-01 FncErr=1.00D-07 GrdErr=1.00D-06
 Number of steps in this run=    390 maximum allowed number of steps=    390.
 GradGradGradGradGradGradGradGradGradGradGradGradGradGradGradGradGradGrad

 Stoichiometry    C26H34O5
 Framework group  C1[X(C26H34O5)]
 Deg. of freedom   189
 Full point group                 C1      NOp   1
 Largest Abelian subgroup         C1      NOp   1
 Largest concise Abelian subgroup C1      NOp   1
                         Standard orientation:                         
 ---------------------------------------------------------------------
 Center     Atomic      Atomic             Coordinates (Angstroms)
 Number     Number       Type             X           Y           Z
 ---------------------------------------------------------------------
      1          6           0       -1.608444    0.238365    3.147085
      2          6           0       -1.437163    1.461039    2.623367
      3          6           0       -1.525896    1.708325    1.136396
      4          6           0       -1.517880    0.444611    0.228881
      5          6           0       -1.388840   -0.937028    0.893255
      6          6           0       -1.920685   -0.978958    2.340187
      7          6           0       -0.407909    0.709017   -0.808932
      8          6           0        0.956873    0.265822   -0.406777
      9          6           0        1.175950   -0.768262    0.410634
     10          6           0        0.017788   -1.555230    0.883879
     11          6           0        2.550856   -1.081856    0.857984
     12          8           0        2.843638   -0.950382    2.046565
     13          6           0        3.540578   -1.590320   -0.184897
     14          6           0        4.839464   -0.775569   -0.093751
     15          6           0        3.761808   -3.083810    0.043131
     16          8           0        0.193126   -2.722451    1.241214
     17          6           0       -0.181396    2.204078   -0.858689
     18          6           0        1.277237    2.308289   -1.352653
     19          8           0        1.957044    1.148084   -0.807040
     20          6           0       -0.393703    2.608856    0.609166
     21          8           0       -0.712882    0.153297   -2.075717
     22          6           0       -2.274039   -1.800453   -0.010513
     23          6           0       -3.399833   -0.854612   -0.396068
     24          8           0       -2.782767    0.439294   -0.507570
     25          6           0       -4.130286   -1.232802   -1.666405
     26          6           0       -4.725810   -2.616291   -1.689652
     27          6           0       -4.303351   -0.405849   -2.712653
     28          6           0        1.394630    2.254675   -2.884444
     29          6           0        2.002459    3.566369   -0.862254
     30          1           0       -0.883558    2.728631   -1.516658
     31          1           0       -2.468873    2.249479    0.968499
     32          6           0       -1.238581    2.657940    3.515962
     33          1           0       -1.582647    0.102135    4.227186
     34          1           0       -1.513681   -1.848365    2.872171
     35          1           0       -3.009501   -1.109429    2.365768
     36          1           0        3.105869   -1.454229   -1.182675
     37          1           0        4.599162    0.295011   -0.093875
     38          1           0        5.348158   -0.975017    0.857643
     39          1           0        2.807566   -3.622185    0.049517
     40          1           0        4.381614   -3.519583   -0.746168
     41          1           0        4.250420   -3.272133    1.005480
     42          1           0        0.513856    2.455939    1.205807
     43          1           0       -0.653660    3.670711    0.687234
     44          1           0       -1.670899    0.299817   -2.206245
     45          1           0       -2.644256   -2.706281    0.483395
     46          1           0       -1.718037   -2.125735   -0.900229
     47          1           0       -4.136587   -0.785065    0.413402
     48          1           0       -3.938318   -3.376151   -1.675015
     49          1           0       -5.372247   -2.765368   -0.818424
     50          1           0       -5.334171   -2.789300   -2.583931
     51          1           0       -3.924936    0.610995   -2.713214
     52          1           0       -4.850480   -0.717657   -3.597515
     53          1           0        2.444629    2.326109   -3.192428
     54          1           0        0.842545    3.075254   -3.354065
     55          1           0        1.035772    1.309771   -3.300552
     56          1           0        3.019917    3.609912   -1.268784
     57          1           0        1.472557    4.475445   -1.164363
     58          1           0        2.126880    3.573603    0.224993
     59          1           0       -1.344275    2.402856    4.575954
     60          1           0       -0.240546    3.085089    3.379463
     61          1           0       -1.983397    3.427498    3.288508
     62          6           0        5.799989   -1.051237   -1.241085
     63          1           0        5.319545   -0.869352   -2.207598
     64          1           0        6.671282   -0.392580   -1.167407
     65          1           0        6.162120   -2.083225   -1.222410
 ---------------------------------------------------------------------
 Rotational constants (GHZ):      0.2053115      0.1213981      0.1157834
 Standard basis: 6-31G(d) (6D, 7F)
 There are   533 symmetry adapted basis functions of A   symmetry.
 Integral buffers will be    131072 words long.
 Raffenetti 2 integral format.
 Two-electron integral symmetry is turned on.
   533 basis functions,  1004 primitive gaussians,   533 cartesian basis functions
   115 alpha electrons      115 beta electrons
       nuclear repulsion energy      3512.5202690782 Hartrees.
 NAtoms=   65 NActive=   65 NUniq=   65 SFac= 1.00D+00 NAtFMM=   50 NAOKFM=T Big=T
 One-electron integrals computed using PRISM.
 NBasis=   533 RedAO= T  NBF=   533
 NBsUse=   533 1.00D-06 NBFU=   533
 Harris functional with IExCor=  402 diagonalized for initial guess.
 ExpMin= 1.61D-01 ExpMax= 5.48D+03 ExpMxC= 8.25D+02 IAcc=1 IRadAn=         1 AccDes= 0.00D+00
 HarFok:  IExCor=  402 AccDes= 0.00D+00 IRadAn=         1 IDoV= 1
 ScaDFX=  1.000000  1.000000  1.000000  1.000000
 FoFCou: FMM=F IPFlag=           0 FMFlag=      100000 FMFlg1=        2001
         NFxFlg=           0 DoJE=T BraDBF=F KetDBF=T FulRan=T
         Omega=  0.000000  0.000000  1.000000  0.000000  0.000000 ICntrl=     500 IOpCl=  0
         NMat0=    1 NMatS0=    1 NMatT0=    0 NMatD0=    1 NMtDS0=    0 NMtDT0=    0
         I1Cent=           4 NGrid=           0.
 Petite list used in FoFCou.
 Initial guess orbital symmetries:
       Occupied  (A) (A) (A) (A) (A) (A) (A) (A) (A) (A) (A) (A)
                 (A) (A) (A) (A) (A) (A) (A) (A) (A) (A) (A) (A)
                 (A) (A) (A) (A) (A) (A) (A) (A) (A) (A) (A) (A)
                 (A) (A) (A) (A) (A) (A) (A) (A) (A) (A) (A) (A)
                 (A) (A) (A) (A) (A) (A) (A) (A) (A) (A) (A) (A)
                 (A) (A) (A) (A) (A) (A) (A) (A) (A) (A) (A) (A)
                 (A) (A) (A) (A) (A) (A) (A) (A) (A) (A) (A) (A)
                 (A) (A) (A) (A) (A) (A) (A) (A) (A) (A) (A) (A)
                 (A) (A) (A) (A) (A) (A) (A) (A) (A) (A) (A) (A)
                 (A) (A) (A) (A) (A) (A) (A)
       Virtual   (A) (A) (A) (A) (A) (A) (A) (A) (A) (A) (A) (A)
                 (A) (A) (A) (A) (A) (A) (A) (A) (A) (A) (A) (A)
                 (A) (A) (A) (A) (A) (A) (A) (A) (A) (A) (A) (A)
                 (A) (A) (A) (A) (A) (A) (A) (A) (A) (A) (A) (A)
                 (A) (A) (A) (A) (A) (A) (A) (A) (A) (A) (A) (A)
                 (A) (A) (A) (A) (A) (A) (A) (A) (A) (A) (A) (A)
                 (A) (A) (A) (A) (A) (A) (A) (A) (A) (A) (A) (A)
                 (A) (A) (A) (A) (A) (A) (A) (A) (A) (A) (A) (A)
                 (A) (A) (A) (A) (A) (A) (A) (A) (A) (A) (A) (A)
                 (A) (A) (A) (A) (A) (A) (A) (A) (A) (A) (A) (A)
                 (A) (A) (A) (A) (A) (A) (A) (A) (A) (A) (A) (A)
                 (A) (A) (A) (A) (A) (A) (A) (A) (A) (A) (A) (A)
                 (A) (A) (A) (A) (A) (A) (A) (A) (A) (A) (A) (A)
                 (A) (A) (A) (A) (A) (A) (A) (A) (A) (A) (A) (A)
                 (A) (A) (A) (A) (A) (A) (A) (A) (A) (A) (A) (A)
                 (A) (A) (A) (A) (A) (A) (A) (A) (A) (A) (A) (A)
                 (A) (A) (A) (A) (A) (A) (A) (A) (A) (A) (A) (A)
                 (A) (A) (A) (A) (A) (A) (A) (A) (A) (A) (A) (A)
                 (A) (A) (A) (A) (A) (A) (A) (A) (A) (A) (A) (A)
                 (A) (A) (A) (A) (A) (A) (A) (A) (A) (A) (A) (A)
                 (A) (A) (A) (A) (A) (A) (A) (A) (A) (A) (A) (A)
                 (A) (A) (A) (A) (A) (A) (A) (A) (A) (A) (A) (A)
                 (A) (A) (A) (A) (A) (A) (A) (A) (A) (A) (A) (A)
                 (A) (A) (A) (A) (A) (A) (A) (A) (A) (A) (A) (A)
                 (A) (A) (A) (A) (A) (A) (A) (A) (A) (A) (A) (A)
                 (A) (A) (A) (A) (A) (A) (A) (A) (A) (A) (A) (A)
                 (A) (A) (A) (A) (A) (A) (A) (A) (A) (A) (A) (A)
                 (A) (A) (A) (A) (A) (A) (A) (A) (A) (A) (A) (A)
                 (A) (A) (A) (A) (A) (A) (A) (A) (A) (A) (A) (A)
                 (A) (A) (A) (A) (A) (A) (A) (A) (A) (A) (A) (A)
                 (A) (A) (A) (A) (A) (A) (A) (A) (A) (A) (A) (A)
                 (A) (A) (A) (A) (A) (A) (A) (A) (A) (A) (A) (A)
                 (A) (A) (A) (A) (A) (A) (A) (A) (A) (A) (A) (A)
                 (A) (A) (A) (A) (A) (A) (A) (A) (A) (A) (A) (A)
                 (A) (A) (A) (A) (A) (A) (A) (A) (A) (A)
 The electronic state of the initial guess is 1-A.
 Requested convergence on RMS density matrix=1.00D-08 within 128 cycles.
 Requested convergence on MAX density matrix=1.00D-06.
 Requested convergence on             energy=1.00D-06.
 No special actions if energy rises.
 Integral accuracy reduced to 1.0D-05 until final iterations.
 Initial convergence to 1.0D-05 achieved.  Increase integral accuracy.
 SCF Done:  E(RB3LYP) =  -1387.30358740     A.U. after   16 cycles
             Convg  =    0.3530D-08             -V/T =  2.0091

 **********************************************************************

            Population analysis using the SCF density.

 **********************************************************************

 Orbital symmetries:
       Occupied  (A) (A) (A) (A) (A) (A) (A) (A) (A) (A) (A) (A)
                 (A) (A) (A) (A) (A) (A) (A) (A) (A) (A) (A) (A)
                 (A) (A) (A) (A) (A) (A) (A) (A) (A) (A) (A) (A)
                 (A) (A) (A) (A) (A) (A) (A) (A) (A) (A) (A) (A)
                 (A) (A) (A) (A) (A) (A) (A) (A) (A) (A) (A) (A)
                 (A) (A) (A) (A) (A) (A) (A) (A) (A) (A) (A) (A)
                 (A) (A) (A) (A) (A) (A) (A) (A) (A) (A) (A) (A)
                 (A) (A) (A) (A) (A) (A) (A) (A) (A) (A) (A) (A)
                 (A) (A) (A) (A) (A) (A) (A) (A) (A) (A) (A) (A)
                 (A) (A) (A) (A) (A) (A) (A)
       Virtual   (A) (A) (A) (A) (A) (A) (A) (A) (A) (A) (A) (A)
                 (A) (A) (A) (A) (A) (A) (A) (A) (A) (A) (A) (A)
                 (A) (A) (A) (A) (A) (A) (A) (A) (A) (A) (A) (A)
                 (A) (A) (A) (A) (A) (A) (A) (A) (A) (A) (A) (A)
                 (A) (A) (A) (A) (A) (A) (A) (A) (A) (A) (A) (A)
                 (A) (A) (A) (A) (A) (A) (A) (A) (A) (A) (A) (A)
                 (A) (A) (A) (A) (A) (A) (A) (A) (A) (A) (A) (A)
                 (A) (A) (A) (A) (A) (A) (A) (A) (A) (A) (A) (A)
                 (A) (A) (A) (A) (A) (A) (A) (A) (A) (A) (A) (A)
                 (A) (A) (A) (A) (A) (A) (A) (A) (A) (A) (A) (A)
                 (A) (A) (A) (A) (A) (A) (A) (A) (A) (A) (A) (A)
                 (A) (A) (A) (A) (A) (A) (A) (A) (A) (A) (A) (A)
                 (A) (A) (A) (A) (A) (A) (A) (A) (A) (A) (A) (A)
                 (A) (A) (A) (A) (A) (A) (A) (A) (A) (A) (A) (A)
                 (A) (A) (A) (A) (A) (A) (A) (A) (A) (A) (A) (A)
                 (A) (A) (A) (A) (A) (A) (A) (A) (A) (A) (A) (A)
                 (A) (A) (A) (A) (A) (A) (A) (A) (A) (A) (A) (A)
                 (A) (A) (A) (A) (A) (A) (A) (A) (A) (A) (A) (A)
                 (A) (A) (A) (A) (A) (A) (A) (A) (A) (A) (A) (A)
                 (A) (A) (A) (A) (A) (A) (A) (A) (A) (A) (A) (A)
                 (A) (A) (A) (A) (A) (A) (A) (A) (A) (A) (A) (A)
                 (A) (A) (A) (A) (A) (A) (A) (A) (A) (A) (A) (A)
                 (A) (A) (A) (A) (A) (A) (A) (A) (A) (A) (A) (A)
                 (A) (A) (A) (A) (A) (A) (A) (A) (A) (A) (A) (A)
                 (A) (A) (A) (A) (A) (A) (A) (A) (A) (A) (A) (A)
                 (A) (A) (A) (A) (A) (A) (A) (A) (A) (A) (A) (A)
                 (A) (A) (A) (A) (A) (A) (A) (A) (A) (A) (A) (A)
                 (A) (A) (A) (A) (A) (A) (A) (A) (A) (A) (A) (A)
                 (A) (A) (A) (A) (A) (A) (A) (A) (A) (A) (A) (A)
                 (A) (A) (A) (A) (A) (A) (A) (A) (A) (A) (A) (A)
                 (A) (A) (A) (A) (A) (A) (A) (A) (A) (A) (A) (A)
                 (A) (A) (A) (A) (A) (A) (A) (A) (A) (A) (A) (A)
                 (A) (A) (A) (A) (A) (A) (A) (A) (A) (A) (A) (A)
                 (A) (A) (A) (A) (A) (A) (A) (A) (A) (A) (A) (A)
                 (A) (A) (A) (A) (A) (A) (A) (A) (A) (A)
 The electronic state is 1-A.
 Alpha  occ. eigenvalues --  -19.19747 -19.16797 -19.15243 -19.13415 -19.12933
 Alpha  occ. eigenvalues --  -10.27867 -10.26795 -10.26614 -10.26166 -10.25947
 Alpha  occ. eigenvalues --  -10.25482 -10.25168 -10.21633 -10.20724 -10.20171
 Alpha  occ. eigenvalues --  -10.20085 -10.19625 -10.19433 -10.19396 -10.19228
 Alpha  occ. eigenvalues --  -10.19203 -10.19100 -10.18702 -10.18343 -10.18304
 Alpha  occ. eigenvalues --  -10.18301 -10.17984 -10.17756 -10.17027 -10.16713
 Alpha  occ. eigenvalues --  -10.16567  -1.08537  -1.05963  -1.03206  -1.02314
 Alpha  occ. eigenvalues --   -1.01963  -0.87350  -0.84047  -0.82747  -0.81768
 Alpha  occ. eigenvalues --   -0.80427  -0.79867  -0.77016  -0.74440  -0.73682
 Alpha  occ. eigenvalues --   -0.72406  -0.71604  -0.69585  -0.69252  -0.68096
 Alpha  occ. eigenvalues --   -0.65380  -0.64556  -0.63240  -0.62298  -0.60902
 Alpha  occ. eigenvalues --   -0.59395  -0.58556  -0.57273  -0.55018  -0.53660
 Alpha  occ. eigenvalues --   -0.53153  -0.52248  -0.50924  -0.50554  -0.49152
 Alpha  occ. eigenvalues --   -0.48418  -0.47837  -0.46733  -0.46280  -0.45743
 Alpha  occ. eigenvalues --   -0.45124  -0.44811  -0.44441  -0.43788  -0.43330
 Alpha  occ. eigenvalues --   -0.42983  -0.42867  -0.42141  -0.41924  -0.41527
 Alpha  occ. eigenvalues --   -0.40887  -0.40598  -0.40430  -0.39999  -0.39460
 Alpha  occ. eigenvalues --   -0.39141  -0.38934  -0.38648  -0.38371  -0.38103
 Alpha  occ. eigenvalues --   -0.37620  -0.37210  -0.37021  -0.36962  -0.36459
 Alpha  occ. eigenvalues --   -0.35934  -0.35443  -0.35181  -0.34415  -0.34380
 Alpha  occ. eigenvalues --   -0.34039  -0.33586  -0.33393  -0.32591  -0.32306
 Alpha  occ. eigenvalues --   -0.31714  -0.31336  -0.31117  -0.28073  -0.26635
 Alpha  occ. eigenvalues --   -0.25610  -0.25048  -0.24410  -0.23284  -0.23224
 Alpha virt. eigenvalues --   -0.05167  -0.01961   0.01113   0.02344   0.04359
 Alpha virt. eigenvalues --    0.07193   0.08073   0.08840   0.09037   0.10130
 Alpha virt. eigenvalues --    0.10338   0.10919   0.11438   0.11969   0.12756
 Alpha virt. eigenvalues --    0.12818   0.13196   0.13495   0.13740   0.14028
 Alpha virt. eigenvalues --    0.14312   0.14636   0.15040   0.15275   0.15555
 Alpha virt. eigenvalues --    0.16025   0.16337   0.16689   0.17134   0.17436
 Alpha virt. eigenvalues --    0.17826   0.17946   0.18017   0.18314   0.18707
 Alpha virt. eigenvalues --    0.19168   0.19226   0.19659   0.19944   0.20442
 Alpha virt. eigenvalues --    0.20760   0.21098   0.21454   0.21530   0.22526
 Alpha virt. eigenvalues --    0.22745   0.23560   0.23934   0.24193   0.24716
 Alpha virt. eigenvalues --    0.25237   0.25376   0.26035   0.26286   0.26575
 Alpha virt. eigenvalues --    0.26957   0.27895   0.28313   0.29141   0.30337
 Alpha virt. eigenvalues --    0.30796   0.31595   0.32390   0.33153   0.34601
 Alpha virt. eigenvalues --    0.34918   0.35940   0.37023   0.39233   0.40594
 Alpha virt. eigenvalues --    0.42460   0.45433   0.47063   0.48081   0.48416
 Alpha virt. eigenvalues --    0.50062   0.51290   0.51582   0.51928   0.52260
 Alpha virt. eigenvalues --    0.52545   0.52830   0.53188   0.53649   0.53822
 Alpha virt. eigenvalues --    0.54116   0.55148   0.55237   0.55449   0.56558
 Alpha virt. eigenvalues --    0.57268   0.57327   0.57788   0.57907   0.58636
 Alpha virt. eigenvalues --    0.59390   0.60132   0.61344   0.61729   0.61805
 Alpha virt. eigenvalues --    0.62140   0.62427   0.62705   0.63685   0.64565
 Alpha virt. eigenvalues --    0.64784   0.65037   0.65489   0.66931   0.67017
 Alpha virt. eigenvalues --    0.67602   0.68092   0.68658   0.68748   0.69523
 Alpha virt. eigenvalues --    0.70296   0.70421   0.71576   0.72528   0.73358
 Alpha virt. eigenvalues --    0.74282   0.74866   0.75429   0.76366   0.76670
 Alpha virt. eigenvalues --    0.77471   0.77802   0.79263   0.79749   0.80348
 Alpha virt. eigenvalues --    0.80844   0.80892   0.81374   0.81843   0.82439
 Alpha virt. eigenvalues --    0.82613   0.82976   0.83537   0.84059   0.84610
 Alpha virt. eigenvalues --    0.85471   0.85847   0.86146   0.86747   0.87154
 Alpha virt. eigenvalues --    0.87480   0.87837   0.88319   0.88351   0.88703
 Alpha virt. eigenvalues --    0.89061   0.89863   0.89912   0.90204   0.90528
 Alpha virt. eigenvalues --    0.90931   0.91187   0.91450   0.91747   0.92101
 Alpha virt. eigenvalues --    0.92737   0.93256   0.93552   0.94178   0.94660
 Alpha virt. eigenvalues --    0.95137   0.95746   0.95823   0.96298   0.96628
 Alpha virt. eigenvalues --    0.96948   0.97610   0.98280   0.99259   0.99307
 Alpha virt. eigenvalues --    0.99669   1.01292   1.01837   1.02543   1.03132
 Alpha virt. eigenvalues --    1.04586   1.04979   1.06119   1.07131   1.07268
 Alpha virt. eigenvalues --    1.07876   1.09153   1.10414   1.11352   1.11771
 Alpha virt. eigenvalues --    1.13601   1.13683   1.15054   1.15941   1.16847
 Alpha virt. eigenvalues --    1.18328   1.18701   1.19172   1.19968   1.20702
 Alpha virt. eigenvalues --    1.21670   1.23884   1.24650   1.25990   1.26205
 Alpha virt. eigenvalues --    1.28680   1.28946   1.30867   1.31972   1.32102
 Alpha virt. eigenvalues --    1.33450   1.34957   1.36279   1.37640   1.39331
 Alpha virt. eigenvalues --    1.40551   1.41130   1.42776   1.43265   1.45538
 Alpha virt. eigenvalues --    1.46746   1.48192   1.50436   1.51382   1.53252
 Alpha virt. eigenvalues --    1.54647   1.55025   1.55806   1.57123   1.59421
 Alpha virt. eigenvalues --    1.60783   1.60858   1.62167   1.62745   1.63895
 Alpha virt. eigenvalues --    1.66281   1.66876   1.67154   1.67934   1.69453
 Alpha virt. eigenvalues --    1.70788   1.72034   1.72606   1.73615   1.73741
 Alpha virt. eigenvalues --    1.74497   1.75351   1.76254   1.77910   1.78355
 Alpha virt. eigenvalues --    1.79252   1.80094   1.80933   1.81448   1.82498
 Alpha virt. eigenvalues --    1.82862   1.83173   1.83727   1.85145   1.85464
 Alpha virt. eigenvalues --    1.85909   1.87091   1.87499   1.87851   1.88457
 Alpha virt. eigenvalues --    1.89592   1.89924   1.90626   1.90743   1.91203
 Alpha virt. eigenvalues --    1.91626   1.92489   1.93589   1.94232   1.95551
 Alpha virt. eigenvalues --    1.95931   1.96630   1.97078   1.97607   1.98406
 Alpha virt. eigenvalues --    1.98641   1.99602   1.99918   2.00596   2.01198
 Alpha virt. eigenvalues --    2.01971   2.02860   2.04693   2.05554   2.06186
 Alpha virt. eigenvalues --    2.06613   2.06977   2.08060   2.09187   2.09541
 Alpha virt. eigenvalues --    2.10535   2.11381   2.12360   2.13155   2.13797
 Alpha virt. eigenvalues --    2.14749   2.15765   2.16168   2.17456   2.17867
 Alpha virt. eigenvalues --    2.19766   2.20567   2.21673   2.22736   2.23386
 Alpha virt. eigenvalues --    2.23779   2.24300   2.25777   2.25871   2.26825
 Alpha virt. eigenvalues --    2.28221   2.29032   2.30267   2.31047   2.31931
 Alpha virt. eigenvalues --    2.32382   2.32674   2.33666   2.33894   2.34560
 Alpha virt. eigenvalues --    2.35864   2.36140   2.37341   2.38044   2.38977
 Alpha virt. eigenvalues --    2.40235   2.41142   2.41692   2.43082   2.44419
 Alpha virt. eigenvalues --    2.45346   2.45955   2.46553   2.47432   2.49349
 Alpha virt. eigenvalues --    2.50437   2.50989   2.52856   2.53874   2.54543
 Alpha virt. eigenvalues --    2.56537   2.58026   2.58454   2.59277   2.60772
 Alpha virt. eigenvalues --    2.62263   2.63792   2.64357   2.64867   2.65845
 Alpha virt. eigenvalues --    2.67002   2.67596   2.69118   2.69947   2.71420
 Alpha virt. eigenvalues --    2.71825   2.73714   2.75676   2.76408   2.78811
 Alpha virt. eigenvalues --    2.79220   2.80771   2.81221   2.83128   2.84696
 Alpha virt. eigenvalues --    2.86181   2.91299   2.92855   2.94016   2.95975
 Alpha virt. eigenvalues --    2.98166   2.99564   3.00364   3.02448   3.03177
 Alpha virt. eigenvalues --    3.04868   3.07395   3.13133   3.17141   3.21079
 Alpha virt. eigenvalues --    3.22999   3.28920   4.02846   4.09626   4.12108
 Alpha virt. eigenvalues --    4.14006   4.14952   4.17622   4.18920   4.21952
 Alpha virt. eigenvalues --    4.23001   4.24414   4.25139   4.28551   4.30175
 Alpha virt. eigenvalues --    4.31777   4.35952   4.37990   4.40083   4.43674
 Alpha virt. eigenvalues --    4.45994   4.47976   4.52259   4.54900   4.59989
 Alpha virt. eigenvalues --    4.61266   4.64327   4.70046   4.71902   4.81438
 Alpha virt. eigenvalues --    4.91745   4.98944   5.18627
          Condensed to atoms (all electrons):
 Mulliken atomic charges:
              1
     1  C   -0.188786
     2  C    0.190733
     3  C   -0.187493
     4  C    0.319346
     5  C   -0.042309
     6  C   -0.333825
     7  C    0.209224
     8  C    0.395405
     9  C   -0.086885
    10  C    0.424564
    11  C    0.423916
    12  O   -0.465426
    13  C   -0.141811
    14  C   -0.250256
    15  C   -0.459651
    16  O   -0.497167
    17  C   -0.160271
    18  C    0.311932
    19  O   -0.542614
    20  C   -0.320157
    21  O   -0.664194
    22  C   -0.321722
    23  C    0.108623
    24  O   -0.589129
    25  C    0.189194
    26  C   -0.519105
    27  C   -0.404065
    28  C   -0.461957
    29  C   -0.464032
    30  H    0.143694
    31  H    0.164521
    32  C   -0.517134
    33  H    0.124708
    34  H    0.181405
    35  H    0.150650
    36  H    0.135665
    37  H    0.142797
    38  H    0.150549
    39  H    0.167023
    40  H    0.147049
    41  H    0.161942
    42  H    0.169067
    43  H    0.147899
    44  H    0.413840
    45  H    0.168053
    46  H    0.173171
    47  H    0.144323
    48  H    0.169335
    49  H    0.156456
    50  H    0.161119
    51  H    0.144430
    52  H    0.139918
    53  H    0.148094
    54  H    0.140170
    55  H    0.185412
    56  H    0.157403
    57  H    0.150689
    58  H    0.160502
    59  H    0.158779
    60  H    0.160659
    61  H    0.148440
    62  C   -0.450682
    63  H    0.140437
    64  H    0.141888
    65  H    0.145644
 Sum of Mulliken atomic charges =   0.00000
 Mulliken charges with hydrogens summed into heavy atoms:
              1
     1  C   -0.064079
     2  C    0.190733
     3  C   -0.022972
     4  C    0.319346
     5  C   -0.042309
     6  C   -0.001770
     7  C    0.209224
     8  C    0.395405
     9  C   -0.086885
    10  C    0.424564
    11  C    0.423916
    12  O   -0.465426
    13  C   -0.006146
    14  C    0.043090
    15  C    0.016362
    16  O   -0.497167
    17  C   -0.016576
    18  C    0.311932
    19  O   -0.542614
    20  C   -0.003190
    21  O   -0.250354
    22  C    0.019502
    23  C    0.252947
    24  O   -0.589129
    25  C    0.189194
    26  C   -0.032195
    27  C   -0.119717
    28  C    0.011720
    29  C    0.004562
    32  C   -0.049257
    62  C   -0.022713
 Sum of Mulliken charges with hydrogens summed into heavy atoms =   0.00000
 Electronic spatial extent (au):  <R**2>=          11603.5893
 Charge=              0.0000 electrons
 Dipole moment (field-independent basis, Debye):
    X=             -3.4080    Y=              3.2336    Z=             -2.1235  Tot=              5.1556
 Quadrupole moment (field-independent basis, Debye-Ang):
   XX=           -179.9211   YY=           -178.8926   ZZ=           -187.4399
   XY=              7.3914   XZ=             -7.4843   YZ=              3.9634
 Traceless Quadrupole moment (field-independent basis, Debye-Ang):
   XX=              2.1634   YY=              3.1920   ZZ=             -5.3554
   XY=              7.3914   XZ=             -7.4843   YZ=              3.9634
 Octapole moment (field-independent basis, Debye-Ang**2):
  XXX=            -13.5908  YYY=             40.5732  ZZZ=             -4.3497  XYY=             -6.9565
  XXY=            -33.4316  XXZ=            -26.9084  XZZ=            -34.7990  YZZ=             13.9942
  YYZ=            -22.1540  XYZ=              0.9276
 Hexadecapole moment (field-independent basis, Debye-Ang**3):
 XXXX=          -8430.4880 YYYY=          -3864.8689 ZZZZ=          -3204.6293 XXXY=            116.5410
 XXXZ=             41.2093 YYYX=             10.1263 YYYZ=              2.5850 ZZZX=              6.9864
 ZZZY=            -15.5824 XXYY=          -1963.4645 XXZZ=          -1957.3313 YYZZ=          -1176.7149
 XXYZ=             23.7546 YYXZ=              6.6183 ZZXY=             37.6290
 N-N= 3.512520269078D+03 E-N=-1.025132959117D+04  KE= 1.374788728394D+03
 Calling FoFJK, ICntrl=      2127 FMM=T ISym2X=0 I1Cent= 0 IOpClX= 0 NMat=1 NMatS=1 NMatT=0.
 ***** Axes restored to original set *****
 -------------------------------------------------------------------
 Center     Atomic                   Forces (Hartrees/Bohr)
 Number     Number              X              Y              Z
 -------------------------------------------------------------------
      1        6           0.009693231   -0.000657665    0.000339173
      2        6          -0.012922372   -0.005443607    0.002065192
      3        6          -0.000661690   -0.007955256   -0.000535024
      4        6           0.003699927   -0.004700901    0.010860361
      5        6          -0.011323138    0.001081889    0.000184201
      6        6          -0.004748834   -0.011382186   -0.001029321
      7        6           0.011931133    0.018931304    0.007986554
      8        6           0.008936298   -0.012052104   -0.014297357
      9        6           0.000146977    0.004022816    0.008563316
     10        6          -0.011304167    0.001571555   -0.019961434
     11        6          -0.015400759   -0.020962020   -0.009850049
     12        8           0.004434521    0.018705700   -0.000970352
     13        6           0.005279294   -0.007066134   -0.001645156
     14        6           0.004204495   -0.002394522   -0.003214164
     15        6          -0.009736395    0.002648614    0.000282391
     16        8           0.011222456   -0.004584816    0.010657001
     17        6           0.007942074   -0.010868663   -0.005594585
     18        6           0.032440609    0.007561504   -0.000566444
     19        8          -0.026909183    0.003476229    0.025997454
     20        6           0.011623548   -0.004946912   -0.000136870
     21        8          -0.006269476    0.006516163   -0.002127262
     22        6          -0.010357223    0.010723005    0.001257992
     23        6           0.007567493    0.009152753    0.003615562
     24        8          -0.003920780   -0.003386929   -0.008910062
     25        6           0.009586371    0.011270845    0.006451535
     26        6          -0.000207724   -0.000226550    0.000043505
     27        6          -0.003387715   -0.009250052   -0.003783627
     28        6          -0.003240365    0.007515224   -0.004964555
     29        6          -0.003772009   -0.006444426   -0.008885411
     30        1          -0.001674309    0.001082976   -0.001754191
     31        1          -0.003292046    0.006134698   -0.000138279
     32        6          -0.001140425    0.000968902   -0.001075021
     33        1           0.001453670   -0.000626782   -0.000112152
     34        1           0.000246863    0.007262843   -0.000838218
     35        1          -0.000786319    0.005469007    0.001973186
     36        1           0.000916809   -0.000809527    0.001085163
     37        1          -0.000692930   -0.000076270    0.001800882
     38        1          -0.001547935   -0.000384343    0.003274412
     39        1          -0.000469178    0.000012433    0.000222587
     40        1           0.000850504    0.000396814   -0.000516907
     41        1           0.001388109   -0.000847431    0.000576644
     42        1           0.000134858    0.002855675   -0.000266761
     43        1          -0.001279743   -0.002031182   -0.001436162
     44        1          -0.001852665   -0.002286300   -0.001334499
     45        1           0.001578768   -0.002685577   -0.001865015
     46        1           0.002077595   -0.001081531    0.002491456
     47        1          -0.003842591   -0.001182525    0.002586712
     48        1          -0.003975827   -0.001078039   -0.000059630
     49        1          -0.004143863   -0.000862178   -0.000406107
     50        1           0.001973644   -0.001303930   -0.000752962
     51        1           0.000472576   -0.000951717   -0.000138940
     52        1          -0.001148153    0.000042555   -0.000236170
     53        1           0.002165476   -0.003852724    0.000401042
     54        1           0.000392666   -0.000819022    0.000192777
     55        1          -0.001123569   -0.002522262    0.005681665
     56        1           0.000702806    0.002844302    0.001357745
     57        1          -0.000831215    0.001242423    0.000574012
     58        1          -0.000195623    0.000072992    0.003807581
     59        1          -0.001125672    0.001810808   -0.000664361
     60        1           0.004246496   -0.001671077    0.000284926
     61        1           0.004143517   -0.001112367    0.000169745
     62        6           0.000729847    0.000359046   -0.003407493
     63        1           0.000595545    0.001998499   -0.000604386
     64        1           0.000618648    0.000954494   -0.001536076
     65        1          -0.000112934    0.001821458   -0.001169770
 -------------------------------------------------------------------
 Cartesian Forces:  Max     0.032440609 RMS     0.006618074

 GradGradGradGradGradGradGradGradGradGradGradGradGradGradGradGradGradGrad
 Berny optimization.
 Internal  Forces:  Max     0.019450300 RMS     0.003440022
 Search for a local minimum.
 Step number   1 out of a maximum of  390
 All quantities printed in internal units (Hartrees-Bohrs-Radians)
 Mixed Optimization -- RFO/linear search
 Second derivative matrix not updated -- first step.
 ITU=  0
     Eigenvalues ---    0.00274   0.00290   0.00333   0.00410   0.00427
     Eigenvalues ---    0.00435   0.00481   0.00553   0.00589   0.00602
     Eigenvalues ---    0.00667   0.00681   0.00684   0.00703   0.00765
     Eigenvalues ---    0.01038   0.01086   0.01235   0.01255   0.01425
     Eigenvalues ---    0.01473   0.01633   0.01713   0.01822   0.01930
     Eigenvalues ---    0.02515   0.02819   0.02821   0.03029   0.03125
     Eigenvalues ---    0.03486   0.03596   0.03857   0.04025   0.04037
     Eigenvalues ---    0.04098   0.04319   0.04376   0.04626   0.04638
     Eigenvalues ---    0.04825   0.04843   0.04952   0.05087   0.05240
     Eigenvalues ---    0.05302   0.05384   0.05438   0.05473   0.05484
     Eigenvalues ---    0.05502   0.05535   0.05548   0.05572   0.05639
     Eigenvalues ---    0.05713   0.05872   0.05918   0.06270   0.06616
     Eigenvalues ---    0.06692   0.06879   0.07104   0.07107   0.07203
     Eigenvalues ---    0.07245   0.07259   0.07354   0.07716   0.08384
     Eigenvalues ---    0.08445   0.08462   0.09008   0.09194   0.09866
     Eigenvalues ---    0.10081   0.10649   0.10964   0.11634   0.12280
     Eigenvalues ---    0.13152   0.14646   0.15207   0.15969   0.16000
     Eigenvalues ---    0.16000   0.16000   0.16000   0.16000   0.16000
     Eigenvalues ---    0.16000   0.16000   0.16000   0.16000   0.16000
     Eigenvalues ---    0.16000   0.16000   0.16000   0.16000   0.16000
     Eigenvalues ---    0.16000   0.16000   0.16000   0.16000   0.16000
     Eigenvalues ---    0.16104   0.16811   0.17228   0.17469   0.18367
     Eigenvalues ---    0.19756   0.21546   0.21904   0.22724   0.23475
     Eigenvalues ---    0.24434   0.24931   0.24977   0.24982   0.24988
     Eigenvalues ---    0.24991   0.24993   0.25000   0.25905   0.27299
     Eigenvalues ---    0.27349   0.27759   0.27813   0.28031   0.28313
     Eigenvalues ---    0.28767   0.28778   0.28878   0.29175   0.29711
     Eigenvalues ---    0.29888   0.30222   0.30491   0.30516   0.31012
     Eigenvalues ---    0.31715   0.31732   0.31875   0.33374   0.33670
     Eigenvalues ---    0.33857   0.33959   0.33992   0.34001   0.34027
     Eigenvalues ---    0.34034   0.34036   0.34043   0.34065   0.34069
     Eigenvalues ---    0.34112   0.34129   0.34134   0.34167   0.34174
     Eigenvalues ---    0.34200   0.34203   0.34235   0.34258   0.34258
     Eigenvalues ---    0.34269   0.34273   0.34291   0.34307   0.34313
     Eigenvalues ---    0.34338   0.34343   0.34373   0.34462   0.34630
     Eigenvalues ---    0.34933   0.35104   0.35270   0.35400   0.36329
     Eigenvalues ---    0.37456   0.42986   0.43531   0.51793   0.53397
     Eigenvalues ---    0.54583   0.56147   0.89757   0.90609
 RFO step:  Lambda=-2.13468971D-02 EMin= 2.73621677D-03
 Linear search not attempted -- first point.
 Iteration  1 RMS(Cart)=  0.06038567 RMS(Int)=  0.00086991
 Iteration  2 RMS(Cart)=  0.00139112 RMS(Int)=  0.00023843
 Iteration  3 RMS(Cart)=  0.00000081 RMS(Int)=  0.00023843
 Variable       Old X    -DE/DX   Delta X   Delta X   Delta X     New X
                                 (Linear)    (Quad)   (Total)
    R1        2.53431  -0.00265   0.00000  -0.00525  -0.00530   2.52902
    R2        2.82225   0.00857   0.00000   0.02567   0.02559   2.84784
    R3        2.05784  -0.00019   0.00000  -0.00050  -0.00050   2.05734
    R4        2.85349   0.00399   0.00000   0.00901   0.00904   2.86253
    R5        2.84637   0.00305   0.00000   0.00900   0.00900   2.85537
    R6        2.94010   0.00510   0.00000   0.01177   0.01171   2.95181
    R7        2.90968   0.01144   0.00000   0.03929   0.03928   2.94896
    R8        2.07891  -0.00092   0.00000  -0.00258  -0.00258   2.07633
    R9        2.90734   0.00904   0.00000   0.02998   0.02977   2.93711
   R10        2.91472   0.00645   0.00000   0.02141   0.02151   2.93623
   R11        2.76593  -0.00478   0.00000  -0.01260  -0.01261   2.75333
   R12        2.91424   0.00110   0.00000   0.00650   0.00644   2.92068
   R13        2.90358   0.00648   0.00000   0.01521   0.01513   2.91871
   R14        2.89435   0.01096   0.00000   0.03719   0.03719   2.93154
   R15        2.07399  -0.00131   0.00000  -0.00364  -0.00364   2.07035
   R16        2.07285   0.00300   0.00000   0.00831   0.00831   2.08116
   R17        2.81612   0.00940   0.00000   0.02021   0.01983   2.83595
   R18        2.85905   0.01584   0.00000   0.05602   0.05548   2.91453
   R19        2.67687   0.00429   0.00000   0.00950   0.00950   2.68637
   R20        2.52509   0.01251   0.00000   0.02155   0.02160   2.54669
   R21        2.63136  -0.01945   0.00000  -0.04626  -0.04604   2.58532
   R22        2.79310  -0.00004   0.00000  -0.00403  -0.00386   2.78924
   R23        2.79579   0.01807   0.00000   0.04914   0.04914   2.84494
   R24        2.33045  -0.01403   0.00000  -0.01527  -0.01527   2.31519
   R25        2.32654  -0.01893   0.00000  -0.02041  -0.02041   2.30612
   R26        2.88187   0.00154   0.00000   0.00480   0.00480   2.88667
   R27        2.90258   0.00485   0.00000   0.01563   0.01563   2.91821
   R28        2.88544   0.00771   0.00000   0.02420   0.02420   2.90964
   R29        2.07272   0.00006   0.00000   0.00016   0.00016   2.07288
   R30        2.07344   0.00012   0.00000   0.00034   0.00034   2.07378
   R31        2.07328  -0.00035   0.00000  -0.00097  -0.00097   2.07231
   R32        2.87523   0.00861   0.00000   0.02662   0.02662   2.90185
   R33        2.07049   0.00044   0.00000   0.00121   0.00121   2.07170
   R34        2.06755   0.00064   0.00000   0.00174   0.00174   2.06929
   R35        2.07037  -0.00016   0.00000  -0.00043  -0.00043   2.06994
   R36        2.91684  -0.00100   0.00000   0.00877   0.00905   2.92589
   R37        2.90522   0.00443   0.00000   0.01574   0.01581   2.92103
   R38        2.07105  -0.00164   0.00000  -0.00451  -0.00451   2.06654
[...]
     54          1           0        0.607787    2.746783   -3.866231
     55          1           0        0.577734    1.003253   -3.518276
     56          1           0        2.765716    3.525058   -1.880445
     57          1           0        1.227378    4.402546   -1.962039
     58          1           0        1.805019    3.755313   -0.411720
     59          1           0       -1.484318    3.075113    4.155666
     60          1           0       -0.536289    3.684507    2.791046
     61          1           0       -2.290989    3.839713    2.773171
     62          6           0        6.159497   -1.440817   -0.692758
     63          1           0        5.997640   -0.868788   -1.615456
     64          1           0        7.173474   -1.219197   -0.340646
     65          1           0        6.130810   -2.504787   -0.953372
 ---------------------------------------------------------------------
 Rotational constants (GHZ):      0.1972234      0.1214601      0.1155335

 **********************************************************************

            Population analysis using the SCF density.

 **********************************************************************

 Orbital symmetries:
       Occupied  (A) (A) (A) (A) (A) (A) (A) (A) (A) (A) (A) (A)
                 (A) (A) (A) (A) (A) (A) (A) (A) (A) (A) (A) (A)
                 (A) (A) (A) (A) (A) (A) (A) (A) (A) (A) (A) (A)
                 (A) (A) (A) (A) (A) (A) (A) (A) (A) (A) (A) (A)
                 (A) (A) (A) (A) (A) (A) (A) (A) (A) (A) (A) (A)
                 (A) (A) (A) (A) (A) (A) (A) (A) (A) (A) (A) (A)
                 (A) (A) (A) (A) (A) (A) (A) (A) (A) (A) (A) (A)
                 (A) (A) (A) (A) (A) (A) (A) (A) (A) (A) (A) (A)
                 (A) (A) (A) (A) (A) (A) (A) (A) (A) (A) (A) (A)
                 (A) (A) (A) (A) (A) (A) (A)
       Virtual   (A) (A) (A) (A) (A) (A) (A) (A) (A) (A) (A) (A)
                 (A) (A) (A) (A) (A) (A) (A) (A) (A) (A) (A) (A)
                 (A) (A) (A) (A) (A) (A) (A) (A) (A) (A) (A) (A)
                 (A) (A) (A) (A) (A) (A) (A) (A) (A) (A) (A) (A)
                 (A) (A) (A) (A) (A) (A) (A) (A) (A) (A) (A) (A)
                 (A) (A) (A) (A) (A) (A) (A) (A) (A) (A) (A) (A)
                 (A) (A) (A) (A) (A) (A) (A) (A) (A) (A) (A) (A)
                 (A) (A) (A) (A) (A) (A) (A) (A) (A) (A) (A) (A)
                 (A) (A) (A) (A) (A) (A) (A) (A) (A) (A) (A) (A)
                 (A) (A) (A) (A) (A) (A) (A) (A) (A) (A) (A) (A)
                 (A) (A) (A) (A) (A) (A) (A) (A) (A) (A) (A) (A)
                 (A) (A) (A) (A) (A) (A) (A) (A) (A) (A) (A) (A)
                 (A) (A) (A) (A) (A) (A) (A) (A) (A) (A) (A) (A)
                 (A) (A) (A) (A) (A) (A) (A) (A) (A) (A) (A) (A)
                 (A) (A) (A) (A) (A) (A) (A) (A) (A) (A) (A) (A)
                 (A) (A) (A) (A) (A) (A) (A) (A) (A) (A) (A) (A)
                 (A) (A) (A) (A) (A) (A) (A) (A) (A) (A) (A) (A)
                 (A) (A) (A) (A) (A) (A) (A) (A) (A) (A) (A) (A)
                 (A) (A) (A) (A) (A) (A) (A) (A) (A) (A) (A) (A)
                 (A) (A) (A) (A) (A) (A) (A) (A) (A) (A) (A) (A)
                 (A) (A) (A) (A) (A) (A) (A) (A) (A) (A) (A) (A)
                 (A) (A) (A) (A) (A) (A) (A) (A) (A) (A) (A) (A)
                 (A) (A) (A) (A) (A) (A) (A) (A) (A) (A) (A) (A)
                 (A) (A) (A) (A) (A) (A) (A) (A) (A) (A) (A) (A)
                 (A) (A) (A) (A) (A) (A) (A) (A) (A) (A) (A) (A)
                 (A) (A) (A) (A) (A) (A) (A) (A) (A) (A) (A) (A)
                 (A) (A) (A) (A) (A) (A) (A) (A) (A) (A) (A) (A)
                 (A) (A) (A) (A) (A) (A) (A) (A) (A) (A) (A) (A)
                 (A) (A) (A) (A) (A) (A) (A) (A) (A) (A) (A) (A)
                 (A) (A) (A) (A) (A) (A) (A) (A) (A) (A) (A) (A)
                 (A) (A) (A) (A) (A) (A) (A) (A) (A) (A) (A) (A)
                 (A) (A) (A) (A) (A) (A) (A) (A) (A) (A) (A) (A)
                 (A) (A) (A) (A) (A) (A) (A) (A) (A) (A) (A) (A)
                 (A) (A) (A) (A) (A) (A) (A) (A) (A) (A) (A) (A)
                 (A) (A) (A) (A) (A) (A) (A) (A) (A) (A)
 The electronic state is 1-A.
 Alpha  occ. eigenvalues --  -19.19598 -19.16598 -19.15754 -19.12682 -19.12415
 Alpha  occ. eigenvalues --  -10.26954 -10.26900 -10.26784 -10.26396 -10.25747
 Alpha  occ. eigenvalues --  -10.25680 -10.25221 -10.21166 -10.20873 -10.20633
 Alpha  occ. eigenvalues --  -10.20227 -10.19824 -10.19644 -10.19354 -10.19207
 Alpha  occ. eigenvalues --  -10.19141 -10.19039 -10.18702 -10.18399 -10.18339
 Alpha  occ. eigenvalues --  -10.18323 -10.18291 -10.17946 -10.17056 -10.16810
 Alpha  occ. eigenvalues --  -10.16614  -1.08988  -1.05959  -1.03107  -1.02524
 Alpha  occ. eigenvalues --   -1.02084  -0.86646  -0.83657  -0.82431  -0.81343
 Alpha  occ. eigenvalues --   -0.80163  -0.79520  -0.76682  -0.74212  -0.73126
 Alpha  occ. eigenvalues --   -0.72101  -0.71277  -0.70030  -0.69542  -0.67889
 Alpha  occ. eigenvalues --   -0.64894  -0.64599  -0.63113  -0.62069  -0.60550
 Alpha  occ. eigenvalues --   -0.59233  -0.58487  -0.56773  -0.54827  -0.53748
 Alpha  occ. eigenvalues --   -0.52710  -0.52155  -0.50552  -0.50308  -0.49154
 Alpha  occ. eigenvalues --   -0.47940  -0.47505  -0.46643  -0.46335  -0.45765
 Alpha  occ. eigenvalues --   -0.45035  -0.44849  -0.44285  -0.43595  -0.43168
 Alpha  occ. eigenvalues --   -0.42997  -0.42664  -0.41978  -0.41721  -0.41196
 Alpha  occ. eigenvalues --   -0.40781  -0.40602  -0.40444  -0.40000  -0.39533
 Alpha  occ. eigenvalues --   -0.38968  -0.38868  -0.38646  -0.38258  -0.37889
 Alpha  occ. eigenvalues --   -0.37499  -0.37393  -0.37158  -0.37072  -0.36541
 Alpha  occ. eigenvalues --   -0.36202  -0.35988  -0.35054  -0.34452  -0.34344
 Alpha  occ. eigenvalues --   -0.33954  -0.33584  -0.33403  -0.32750  -0.31852
 Alpha  occ. eigenvalues --   -0.31522  -0.31314  -0.30986  -0.28254  -0.26482
 Alpha  occ. eigenvalues --   -0.25914  -0.24544  -0.24009  -0.23243  -0.22676
 Alpha virt. eigenvalues --   -0.04408  -0.01043   0.00950   0.02379   0.05484
 Alpha virt. eigenvalues --    0.07316   0.08406   0.08723   0.09279   0.09969
 Alpha virt. eigenvalues --    0.10214   0.10891   0.11109   0.11998   0.12577
 Alpha virt. eigenvalues --    0.12851   0.13034   0.14042   0.14095   0.14190
 Alpha virt. eigenvalues --    0.14580   0.14731   0.15094   0.15422   0.15823
 Alpha virt. eigenvalues --    0.16115   0.16326   0.16539   0.16933   0.17269
 Alpha virt. eigenvalues --    0.17720   0.17764   0.18217   0.18448   0.18478
 Alpha virt. eigenvalues --    0.18830   0.19017   0.19389   0.19461   0.20283
 Alpha virt. eigenvalues --    0.20642   0.20875   0.21421   0.21443   0.22654
 Alpha virt. eigenvalues --    0.22771   0.23345   0.23760   0.24125   0.24620
 Alpha virt. eigenvalues --    0.24672   0.25422   0.25591   0.25720   0.26624
 Alpha virt. eigenvalues --    0.27284   0.27704   0.28140   0.28647   0.30184
 Alpha virt. eigenvalues --    0.30819   0.31691   0.32626   0.32961   0.33839
 Alpha virt. eigenvalues --    0.35333   0.35656   0.36773   0.38891   0.39509
 Alpha virt. eigenvalues --    0.41859   0.45461   0.46898   0.48499   0.48737
 Alpha virt. eigenvalues --    0.49137   0.50466   0.51201   0.51477   0.52053
 Alpha virt. eigenvalues --    0.52376   0.52517   0.52788   0.53224   0.53828
 Alpha virt. eigenvalues --    0.54049   0.54318   0.55093   0.55488   0.56140
 Alpha virt. eigenvalues --    0.56804   0.57001   0.57684   0.58039   0.58352
 Alpha virt. eigenvalues --    0.59253   0.60217   0.60570   0.61093   0.61801
 Alpha virt. eigenvalues --    0.62612   0.62685   0.63062   0.64060   0.64517
 Alpha virt. eigenvalues --    0.65130   0.65559   0.66005   0.66677   0.67522
 Alpha virt. eigenvalues --    0.68126   0.68525   0.68852   0.69212   0.69930
 Alpha virt. eigenvalues --    0.70355   0.71250   0.72054   0.72984   0.73634
 Alpha virt. eigenvalues --    0.74145   0.74332   0.75217   0.76227   0.76457
 Alpha virt. eigenvalues --    0.76825   0.77225   0.78242   0.78912   0.80070
 Alpha virt. eigenvalues --    0.80249   0.81157   0.81616   0.81864   0.82189
 Alpha virt. eigenvalues --    0.82784   0.83518   0.83716   0.84972   0.85122
 Alpha virt. eigenvalues --    0.85937   0.86012   0.86241   0.86651   0.87229
 Alpha virt. eigenvalues --    0.87558   0.87837   0.88138   0.88444   0.88753
 Alpha virt. eigenvalues --    0.89182   0.89409   0.89608   0.89782   0.90369
 Alpha virt. eigenvalues --    0.90786   0.90901   0.91044   0.91478   0.91999
 Alpha virt. eigenvalues --    0.92477   0.92868   0.93848   0.94095   0.94198
 Alpha virt. eigenvalues --    0.94568   0.95575   0.95952   0.96528   0.97005
 Alpha virt. eigenvalues --    0.97215   0.98065   0.98453   0.99187   0.99545
 Alpha virt. eigenvalues --    0.99806   1.01030   1.01815   1.02384   1.03525
 Alpha virt. eigenvalues --    1.04682   1.05496   1.05950   1.06544   1.08456
 Alpha virt. eigenvalues --    1.08679   1.09390   1.10435   1.10939   1.12926
 Alpha virt. eigenvalues --    1.14162   1.14427   1.14720   1.15664   1.16561
 Alpha virt. eigenvalues --    1.17181   1.17892   1.19514   1.19741   1.21053
 Alpha virt. eigenvalues --    1.22736   1.23680   1.24067   1.26094   1.26585
 Alpha virt. eigenvalues --    1.29057   1.29438   1.31470   1.32056   1.33006
 Alpha virt. eigenvalues --    1.33617   1.35729   1.36002   1.38690   1.39550
 Alpha virt. eigenvalues --    1.40157   1.41283   1.42815   1.43220   1.45898
 Alpha virt. eigenvalues --    1.47144   1.47644   1.49430   1.51608   1.52996
 Alpha virt. eigenvalues --    1.53278   1.55451   1.55625   1.57701   1.58306
 Alpha virt. eigenvalues --    1.59317   1.61513   1.62187   1.63166   1.64170
 Alpha virt. eigenvalues --    1.66144   1.66867   1.67187   1.67941   1.70451
 Alpha virt. eigenvalues --    1.70901   1.72145   1.72284   1.73059   1.73314
 Alpha virt. eigenvalues --    1.73840   1.73942   1.75784   1.76990   1.77626
 Alpha virt. eigenvalues --    1.78442   1.78817   1.79717   1.81149   1.82126
 Alpha virt. eigenvalues --    1.82490   1.83449   1.83879   1.84615   1.85157
 Alpha virt. eigenvalues --    1.85758   1.85799   1.86801   1.87396   1.87967
 Alpha virt. eigenvalues --    1.88199   1.89300   1.89804   1.90391   1.91438
 Alpha virt. eigenvalues --    1.92289   1.92675   1.93014   1.93882   1.94604
 Alpha virt. eigenvalues --    1.95773   1.96234   1.96517   1.97240   1.97580
 Alpha virt. eigenvalues --    1.98406   1.98993   1.99770   2.00404   2.01322
 Alpha virt. eigenvalues --    2.01596   2.02977   2.03623   2.04271   2.05642
 Alpha virt. eigenvalues --    2.06244   2.06985   2.07518   2.09049   2.09920
 Alpha virt. eigenvalues --    2.10356   2.11056   2.11395   2.11541   2.13073
 Alpha virt. eigenvalues --    2.13548   2.14511   2.15322   2.16317   2.16999
 Alpha virt. eigenvalues --    2.18814   2.19421   2.20950   2.21633   2.22371
 Alpha virt. eigenvalues --    2.23494   2.23973   2.25602   2.26180   2.26837
 Alpha virt. eigenvalues --    2.27477   2.29092   2.29757   2.30860   2.31720
 Alpha virt. eigenvalues --    2.32745   2.33036   2.33704   2.34144   2.34471
 Alpha virt. eigenvalues --    2.35516   2.35719   2.36513   2.37561   2.38689
 Alpha virt. eigenvalues --    2.38991   2.39890   2.41294   2.42145   2.42731
 Alpha virt. eigenvalues --    2.43940   2.45634   2.46461   2.47572   2.49345
 Alpha virt. eigenvalues --    2.49822   2.50482   2.52266   2.53644   2.54731
 Alpha virt. eigenvalues --    2.55533   2.56897   2.57839   2.58708   2.60415
 Alpha virt. eigenvalues --    2.61175   2.63591   2.64134   2.64432   2.65518
 Alpha virt. eigenvalues --    2.66644   2.67527   2.68101   2.69144   2.70025
 Alpha virt. eigenvalues --    2.70763   2.72382   2.72826   2.76191   2.77033
 Alpha virt. eigenvalues --    2.78877   2.79448   2.80744   2.83239   2.83714
 Alpha virt. eigenvalues --    2.85307   2.91190   2.92135   2.94451   2.97738
 Alpha virt. eigenvalues --    2.98057   2.99848   3.00685   3.02025   3.03330
 Alpha virt. eigenvalues --    3.04407   3.06871   3.12313   3.18324   3.21648
 Alpha virt. eigenvalues --    3.24222   3.28168   4.04482   4.08194   4.10760
 Alpha virt. eigenvalues --    4.12868   4.13664   4.13858   4.17227   4.19344
 Alpha virt. eigenvalues --    4.23101   4.24213   4.26362   4.30019   4.31091
 Alpha virt. eigenvalues --    4.31552   4.34665   4.38155   4.38609   4.45132
 Alpha virt. eigenvalues --    4.45345   4.47714   4.52596   4.55322   4.58295
 Alpha virt. eigenvalues --    4.62584   4.65263   4.66589   4.73224   4.81732
 Alpha virt. eigenvalues --    4.89353   5.02285   5.16907
          Condensed to atoms (all electrons):
 Mulliken atomic charges:
              1
     1  C   -0.184559
     2  C    0.193747
     3  C   -0.189708
     4  C    0.321000
     5  C   -0.054089
     6  C   -0.333710
     7  C    0.202332
     8  C    0.394793
     9  C   -0.097120
    10  C    0.434674
    11  C    0.421027
    12  O   -0.441456
    13  C   -0.167747
    14  C   -0.241956
    15  C   -0.456692
    16  O   -0.499552
    17  C   -0.165187
    18  C    0.306146
    19  O   -0.539885
    20  C   -0.322787
    21  O   -0.663145
    22  C   -0.324251
    23  C    0.105970
    24  O   -0.590340
    25  C    0.187355
    26  C   -0.519551
    27  C   -0.408329
    28  C   -0.468283
    29  C   -0.459357
    30  H    0.143248
    31  H    0.165894
    32  C   -0.519475
    33  H    0.124372
    34  H    0.185492
    35  H    0.144701
    36  H    0.149004
    37  H    0.141241
    38  H    0.148233
    39  H    0.155955
    40  H    0.150949
    41  H    0.163515
    42  H    0.168977
    43  H    0.150854
    44  H    0.416275
    45  H    0.166497
    46  H    0.170263
    47  H    0.145332
    48  H    0.169957
    49  H    0.159122
    50  H    0.161486
    51  H    0.152667
    52  H    0.139164
    53  H    0.154945
    54  H    0.143447
    55  H    0.192982
    56  H    0.162524
    57  H    0.151000
    58  H    0.163828
    59  H    0.158955
    60  H    0.157911
    61  H    0.149325
    62  C   -0.452589
    63  H    0.137320
    64  H    0.143491
    65  H    0.143795
 Sum of Mulliken atomic charges =   0.00000
 Mulliken charges with hydrogens summed into heavy atoms:
              1
     1  C   -0.060187
     2  C    0.193747
     3  C   -0.023814
     4  C    0.321000
     5  C   -0.054089
     6  C   -0.003517
     7  C    0.202332
     8  C    0.394793
     9  C   -0.097120
    10  C    0.434674
    11  C    0.421027
    12  O   -0.441456
    13  C   -0.018743
    14  C    0.047519
    15  C    0.013727
    16  O   -0.499552
    17  C   -0.021939
    18  C    0.306146
    19  O   -0.539885
    20  C   -0.002956
    21  O   -0.246870
    22  C    0.012510
    23  C    0.251303
    24  O   -0.590340
    25  C    0.187355
    26  C   -0.028986
    27  C   -0.116498
    28  C    0.023092
    29  C    0.017996
    32  C   -0.053284
    62  C   -0.027983
 Sum of Mulliken charges with hydrogens summed into heavy atoms =   0.00000
 Electronic spatial extent (au):  <R**2>=          11704.6065
 Charge=              0.0000 electrons
 Dipole moment (field-independent basis, Debye):
    X=             -3.6404    Y=              2.6975    Z=             -3.5454  Tot=              5.7531
 Quadrupole moment (field-independent basis, Debye-Ang):
   XX=           -182.9353   YY=           -173.1627   ZZ=           -189.4636
   XY=              6.9687   XZ=             -9.1763   YZ=              2.1835
 Traceless Quadrupole moment (field-independent basis, Debye-Ang):
   XX=             -1.0814   YY=              8.6912   ZZ=             -7.6097
   XY=              6.9687   XZ=             -9.1763   YZ=              2.1835
 Octapole moment (field-independent basis, Debye-Ang**2):
  XXX=             -7.8435  YYY=             23.8639  ZZZ=            -19.8444  XYY=            -14.9618
  XXY=            -32.6829  XXZ=            -26.9084  XZZ=            -34.5235  YZZ=             23.7440
  YYZ=            -24.0121  XYZ=             -2.8422
 Hexadecapole moment (field-independent basis, Debye-Ang**3):
 XXXX=          -8384.2119 YYYY=          -3990.5392 ZZZZ=          -3298.4330 XXXY=            101.6721
 XXXZ=             11.6800 YYYX=             45.5731 YYYZ=             -8.5052 ZZZX=            -14.1421
 ZZZY=             -3.8748 XXYY=          -1957.1265 XXZZ=          -1959.7137 YYZZ=          -1217.8931
 XXYZ=              2.9529 YYXZ=             12.5392 ZZXY=             42.2424
 N-N= 3.499706258984D+03 E-N=-1.022564246851D+04  KE= 1.374458688729D+03
 1\1\GINC-B0805\FOpt\RB3LYP\6-31G(d)\C26H34O5\CAOFEI\24-Mar-2021\0\\# o
 pt rb3lyp/6-31g(d) geom=connectivity\\Title Card Required\\0,1\C,0.078
 6966505,-0.0984811871,0.0622066499\C,1.4161346955,-0.0697668017,0.0873
 686597\C,2.1759589053,1.240762684,0.0822347466\C,1.3390668672,2.510570
 7786,-0.267483811\C,-0.148266384,2.3375495315,-0.6743392342\C,-0.79577
 33515,1.1242771413,0.0364140809\C,2.17861632,3.244184572,-1.348136452\
 C,1.8566319199,2.7874897835,-2.753962976\C,0.6452075365,2.3642781727,-
 3.1761720683\C,-0.4400949476,2.2161699366,-2.1948860933\C,0.3931280656
 ,1.8998132953,-4.5963001282\O,0.0770166221,0.7451874117,-4.8089842896\
 C,0.5177560758,2.9411002906,-5.7066636202\C,0.6005478959,2.2739434681,
 -7.0891908169\C,-0.6635045675,3.9295257624,-5.5775840188\O,-1.59285885
 93,2.0030948053,-2.5480816917\C,3.6325640441,2.730232525,-1.2551878979
 \C,4.1792574193,2.9809814354,-2.6818713189\O,2.9619588933,2.8005636557
 ,-3.5212240814\C,3.4128144331,1.2545741972,-0.863168733\O,2.0111639813
 ,4.649280933,-1.3048559476\C,-0.7716575135,3.6579548926,-0.1534630889\
 C,0.0084220083,3.9097993533,1.1452729165\O,1.3200453509,3.368780993,0.
 9017546166\C,0.0800213911,5.3533028118,1.5963889368\C,-1.2527736855,6.
 0450601085,1.7447143146\C,1.2383766157,5.952228483,1.8921458811\C,4.68
 27968263,4.4119914652,-2.8847321479\C,5.201445061,1.970159914,-3.19553
 78293\H,4.209325541,3.272135253,-0.4991964342\H,2.5393757026,1.4253209
 562,1.103231081\C,2.2365475059,-1.3314623327,0.1954511362\H,-0.4293891
 171,-1.0609439085,0.1013638036\H,-1.7421613706,0.9162799771,-0.4715901
 452\H,-1.0579399565,1.399625659,1.0693152888\H,1.4450284431,3.50157653
 79,-5.5176897228\H,1.3603382051,1.4840047444,-7.0488328738\H,-0.347240
 8793,1.762001427,-7.2947097179\H,-0.7010474343,4.3793058561,-4.5802444
 106\H,-0.569974264,4.740803877,-6.3062757411\H,-1.6160429918,3.4165771
 422,-5.7513721438\H,3.1880404472,0.6623721141,-1.7565006215\H,4.294339
 164,0.8076903494,-0.3947423382\H,1.9379448855,4.8709325693,-0.35593235
 94\H,-1.8493664907,3.5609282826,0.0008294073\H,-0.5933292672,4.4724700
 27,-0.8626945657\H,-0.447579921,3.3291542202,1.9642389057\H,-1.7744230
 231,6.1302269046,0.783010188\H,-1.9175611975,5.4829987737,2.4149864867
 \H,-1.1317287816,7.0511275295,2.1559521321\H,2.185605612,5.4258238789,
 1.83394812\H,1.266919982,6.9852585061,2.228213747\H,4.8829734725,4.588
 8842136,-3.9466524136\H,5.6179656959,4.5607267908,-2.3325012942\H,3.94
 84037232,5.1388046206,-2.5331529141\H,5.4666337128,2.1999574973,-4.232
 3908616\H,6.1139342888,2.0233288026,-2.5913755632\H,4.8211208568,0.946
 7053138,-3.1619779315\H,1.5935379738,-2.2141965254,0.2636351604\H,2.90
 13733565,-1.4686855605,-0.6670034362\H,2.8791945084,-1.3114133084,1.08
 74637105\C,0.9355701797,3.2424670466,-8.2287517032\H,1.8814886847,3.76
 69874281,-8.0419298315\H,1.0390743239,2.7030040222,-9.1771796906\H,0.1
 580501591,4.0017109022,-8.3694170114\\Version=EM64L-G09RevB.01\State=1
 -A\HF=-1387.3194517\RMSD=6.696e-09\RMSF=1.038e-06\Dipole=1.4868444,0.8
 432287,1.4837518\Quadrupole=3.2766599,-1.9695617,-1.3070982,-6.6925022
 ,-6.7826853,-3.7776752\PG=C01 [X(C26H34O5)]\\@


 Statistics are no substitute for judgment.
                            -- Henry Clay
 Job cpu time:  0 days  7 hours 18 minutes  1.9 seconds.
 File lengths (MBytes):  RWF=    186 Int=      0 D2E=      0 Chk=     20 Scr=      1
 Normal termination of Gaussian 09 at Wed Mar 24 15:50:55 2021.
