 Entering Gaussian System, Link 0=g09
 Initial command:
 /public/software/g09/g09/l1.exe /tmp/Gau-4909.inp -scrdir=/tmp/
 Entering Link 1 = /public/software/g09/g09/l1.exe PID=      4910.
  
 Copyright (c) 1988,1990,1992,1993,1995,1998,2003,2009,2010,
            Gaussian, Inc.  All Rights Reserved.
  
 This is part of the Gaussian(R) 09 program.  It is based on
 the Gaussian(R) 03 system (copyright 2003, Gaussian, Inc.),
 the Gaussian(R) 98 system (copyright 1998, Gaussian, Inc.),
 the Gaussian(R) 94 system (copyright 1995, Gaussian, Inc.),
 the Gaussian 92(TM) system (copyright 1992, Gaussian, Inc.),
 the Gaussian 90(TM) system (copyright 1990, Gaussian, Inc.),
 the Gaussian 88(TM) system (copyright 1988, Gaussian, Inc.),
 the Gaussian 86(TM) system (copyright 1986, Carnegie Mellon
 University), and the Gaussian 82(TM) system (copyright 1983,
 Carnegie Mellon University). Gaussian is a federally registered
 trademark of Gaussian, Inc.
  
 This software contains proprietary and confidential information,
 including trade secrets, belonging to Gaussian, Inc.
  
 This software is provided under written license and may be
 used, copied, transmitted, or stored only in accord with that
 written license.
  
 The following legend is applicable only to US Government
 contracts under FAR:
  
                    RESTRICTED RIGHTS LEGEND
  
 Use, reproduction and disclosure by the US Government is
 subject to restrictions as set forth in subparagraphs (a)
 and (c) of the Commercial Computer Software - Restricted
 Rights clause in FAR 52.227-19.
  
 Gaussian, Inc.
 340 Quinnipiac St., Bldg. 40, Wallingford CT 06492
  
  
 ---------------------------------------------------------------
 Warning -- This program may not be used in any manner that
 competes with the business of Gaussian, Inc. or will provide
 assistance to any competitor of Gaussian, Inc.  The licensee
 of this program is prohibited from giving any competitor of
 Gaussian, Inc. access to this program.  By using this program,
 the user acknowledges that Gaussian, Inc. is engaged in the
 business of creating and licensing software in the field of
 computational chemistry and represents and warrants to the
 licensee that it is not a competitor of Gaussian, Inc. and that
 it will not use this program in any manner prohibited above.
 ---------------------------------------------------------------
  

 Cite this work as:
 Gaussian 09, Revision B.01,
 M. J. Frisch, G. W. Trucks, H. B. Schlegel, G. E. Scuseria, 
 M. A. Robb, J. R. Cheeseman, G. Scalmani, V. Barone, B. Mennucci, 
 G. A. Petersson, H. Nakatsuji, M. Caricato, X. Li, H. P. Hratchian, 
 A. F. Izmaylov, J. Bloino, G. Zheng, J. L. Sonnenberg, M. Hada, 
 M. Ehara, K. Toyota, R. Fukuda, J. Hasegawa, M. Ishida, T. Nakajima, 
 Y. Honda, O. Kitao, H. Nakai, T. Vreven, J. A. Montgomery, Jr., 
 J. E. Peralta, F. Ogliaro, M. Bearpark, J. J. Heyd, E. Brothers, 
 K. N. Kudin, V. N. Staroverov, T. Keith, R. Kobayashi, J. Normand, 
 K. Raghavachari, A. Rendell, J. C. Burant, S. S. Iyengar, J. Tomasi, 
 M. Cossi, N. Rega, J. M. Millam, M. Klene, J. E. Knox, J. B. Cross, 
 V. Bakken, C. Adamo, J. Jaramillo, R. Gomperts, R. E. Stratmann, 
 O. Yazyev, A. J. Austin, R. Cammi, C. Pomelli, J. W. Ochterski, 
 R. L. Martin, K. Morokuma, V. G. Zakrzewski, G. A. Voth, 
 P. Salvador, J. J. Dannenberg, S. Dapprich, A. D. Daniels, 
 O. Farkas, J. B. Foresman, J. V. Ortiz, J. Cioslowski, 
 and D. J. Fox, Gaussian, Inc., Wallingford CT, 2010.
 
 ******************************************
 Gaussian 09:  EM64L-G09RevB.01 12-Aug-2010
                24-Mar-2021 
 ******************************************
 %mem=600MW
 %nprocshared=10
 Will use up to   10 processors via shared memory.
 ---------------------------------------
 # opt rb3lyp/6-31g(d) geom=connectivity
 ---------------------------------------
 1/14=-1,18=20,19=15,26=3,38=1,57=2/1,3;
 2/9=110,12=2,17=6,18=5,40=1/2;
 3/5=1,6=6,7=1,11=2,16=1,25=1,30=1,71=1,74=-5,116=1/1,2,3;
 4//1;
 5/5=2,38=5/2;
 6/7=2,8=2,9=2,10=2,28=1/1;
 7//1,2,3,16;
 1/14=-1,18=20,19=15/3(2);
 2/9=110/2;
 99//99;
 2/9=110/2;
 3/5=1,6=6,7=1,11=2,16=1,25=1,30=1,71=1,74=-5,116=1/1,2,3;
 4/5=5,16=3/1;
 5/5=2,38=5/2;
 7//1,2,3,16;
 1/14=-1,18=20,19=15/3(-5);
 2/9=110/2;
 6/7=2,8=2,9=2,10=2,19=2,28=1/1;
 99/9=1/99;
 -------------------
 Title Card Required
 -------------------
 Symbolic Z-matrix:
 Charge =  0 Multiplicity = 1
 C                     0.        0.        0. 
 C                     1.3403    0.        0. 
 C                     2.1215    1.2864    0. 
 C                     1.3753    2.5459    0.5327 
 C                    -0.1659    2.4708    0.6578 
 C                    -0.8054    1.256    -0.049 
 C                     1.9034    3.6992   -0.3464 
 C                     0.9649    4.1861   -1.3954 
 C                    -0.3593    4.2346   -1.2214 
 C                    -0.88      3.6958    0.0557 
 C                    -1.2585    4.7303   -2.2876 
 O                    -1.3548    4.1058   -3.3445 
 C                    -2.0597    5.9965   -2.0058 
 C                    -1.7382    7.0908   -3.0345 
 C                    -3.5489    5.6525   -2.0454 
 O                    -1.9297    4.1357    0.5216 
 C                     3.0239    3.1556   -1.2112 
 C                     2.9674    4.0519   -2.4627 
 O                     1.5912    4.4798   -2.597 
 C                     2.6137    1.6875   -1.3956 
 O                     2.3234    4.809     0.4349 
 C                    -0.4049    2.4311    2.1791 
 C                     0.9557    2.1449    2.7865 
 O                     1.8699    2.7795    1.8856 
 C                     1.1151    2.6628    4.1978 
 C                     0.267     1.9774    5.2358 
 C                     1.9598    3.6475    4.5506 
 C                     3.8332    5.3126   -2.3125 
 C                     3.3725    3.3314   -3.7512 
 H                     4.0033    3.211    -0.7198 
 H                     3.006     1.1291    0.6359 
 C                     2.1345   -1.2754   -0.0142 
 H                    -0.5491   -0.9389   -0.029 
 H                    -1.7917    1.0565    0.3908 
 H                    -1.0028    1.4685   -1.1084 
 H                    -1.8163    6.3678   -1.0031 
 H                    -1.8739    6.7125   -4.055 
 H                    -2.4402    7.9242   -2.9078 
 H                    -4.1558    6.5229   -1.7751 
 H                    -3.7869    4.8447   -1.3458 
 H                    -3.8563    5.3217   -3.0438 
 H                     3.4608    1.0759   -1.7241 
 H                     1.8109    1.5709   -2.1341 
 H                     2.4934    4.4503    1.3316 
 H                    -1.1422    1.6819    2.488 
 H                    -0.7703    3.3996    2.5442 
 H                     1.1708    1.0693    2.7784 
 H                    -0.7963    2.1372    5.0311 
 H                     0.4643    0.9004    5.2359 
 H                     0.4686    2.35      6.2459 
 H                     2.5908    4.1512    3.8262 
 H                     2.0451    3.9802    5.5807 
 H                     3.5179    5.9314   -1.4674 
 H                     3.7405    5.9521   -3.1982 
 H                     4.8896    5.057    -2.1808 
 H                     4.3825    2.9158   -3.6769 
 H                     3.3447    4.0191   -4.6048 
 H                     2.6752    2.5259   -4.0031 
 H                     1.4904   -2.161    -0.0205 
 H                     2.7701   -1.3201   -0.9041 
 H                     2.7723   -1.3348    0.8736 
 C                    -0.3243    7.6382   -2.8954 
 H                     0.4238    6.8777   -3.1331 
 H                    -0.1399    8.0015   -1.8795 
 H                    -0.1763    8.4747   -3.586 
 

 GradGradGradGradGradGradGradGradGradGradGradGradGradGradGradGradGradGrad
 Berny optimization.
 Initialization pass.
                           ----------------------------
                           !    Initial Parameters    !
                           ! (Angstroms and Degrees)  !
 --------------------------                            --------------------------
 ! Name  Definition              Value          Derivative Info.                !
 --------------------------------------------------------------------------------
 ! R1    R(1,2)                  1.3403         estimate D2E/DX2                !
 ! R2    R(1,6)                  1.4929         estimate D2E/DX2                !
 ! R3    R(1,33)                 1.0881         estimate D2E/DX2                !
 ! R4    R(2,3)                  1.505          estimate D2E/DX2                !
 ! R5    R(2,32)                 1.5025         estimate D2E/DX2                !
 ! R6    R(3,4)                  1.5579         estimate D2E/DX2                !
 ! R7    R(3,20)                 1.5332         estimate D2E/DX2                !
 ! R8    R(3,31)                 1.1007         estimate D2E/DX2                !
 ! R9    R(4,5)                  1.5481         estimate D2E/DX2                !
 ! R10   R(4,7)                  1.5433         estimate D2E/DX2                !
 ! R11   R(4,24)                 1.4593         estimate D2E/DX2                !
 ! R12   R(5,6)                  1.5441         estimate D2E/DX2                !
 ! R13   R(5,10)                 1.5405         estimate D2E/DX2                !
 ! R14   R(5,22)                 1.5405         estimate D2E/DX2                !
 ! R15   R(6,34)                 1.0982         estimate D2E/DX2                !
 ! R16   R(6,35)                 1.0984         estimate D2E/DX2                !
 ! R17   R(7,8)                  1.4894         estimate D2E/DX2                !
 ! R18   R(7,17)                 1.5162         estimate D2E/DX2                !
 ! R19   R(7,21)                 1.4207         estimate D2E/DX2                !
 ! R20   R(8,9)                  1.3365         estimate D2E/DX2                !
 ! R21   R(8,19)                 1.3865         estimate D2E/DX2                !
 ! R22   R(9,10)                 1.4807         estimate D2E/DX2                !
 ! R23   R(9,11)                 1.4802         estimate D2E/DX2                !
 ! R24   R(10,16)                1.2298         estimate D2E/DX2                !
 ! R25   R(11,12)                1.2314         estimate D2E/DX2                !
 ! R26   R(11,13)                1.5247         estimate D2E/DX2                !
 ! R27   R(13,14)                1.5359         estimate D2E/DX2                !
 ! R28   R(13,15)                1.5289         estimate D2E/DX2                !
 ! R29   R(13,36)                1.0966         estimate D2E/DX2                !
 ! R30   R(14,37)                1.0968         estimate D2E/DX2                !
 ! R31   R(14,38)                1.097          estimate D2E/DX2                !
 ! R32   R(14,62)                1.5225         estimate D2E/DX2                !
 ! R33   R(15,39)                1.095          estimate D2E/DX2                !
 ! R34   R(15,40)                1.0948         estimate D2E/DX2                !
 ! R35   R(15,41)                1.0958         estimate D2E/DX2                !
 ! R36   R(17,18)                1.5404         estimate D2E/DX2                !
 ! R37   R(17,20)                1.5354         estimate D2E/DX2                !
 ! R38   R(17,30)                1.0972         estimate D2E/DX2                !
 ! R39   R(18,19)                1.4474         estimate D2E/DX2                !
 ! R40   R(18,28)                1.5367         estimate D2E/DX2                !
 ! R41   R(18,29)                1.5308         estimate D2E/DX2                !
 ! R42   R(20,42)                1.0952         estimate D2E/DX2                !
 ! R43   R(20,43)                1.097          estimate D2E/DX2                !
 ! R44   R(21,44)                0.9806         estimate D2E/DX2                !
 ! R45   R(22,23)                1.5173         estimate D2E/DX2                !
 ! R46   R(22,45)                1.0956         estimate D2E/DX2                !
 ! R47   R(22,46)                1.0976         estimate D2E/DX2                !
 ! R48   R(23,24)                1.4318         estimate D2E/DX2                !
 ! R49   R(23,25)                1.5118         estimate D2E/DX2                !
 ! R50   R(23,47)                1.0969         estimate D2E/DX2                !
 ! R51   R(24,44)                1.8674         estimate D2E/DX2                !
 ! R52   R(25,26)                1.5055         estimate D2E/DX2                !
 ! R53   R(25,27)                1.3445         estimate D2E/DX2                !
 ! R54   R(26,48)                1.0946         estimate D2E/DX2                !
 ! R55   R(26,49)                1.0949         estimate D2E/DX2                !
 ! R56   R(26,50)                1.0953         estimate D2E/DX2                !
 ! R57   R(27,51)                1.0847         estimate D2E/DX2                !
 ! R58   R(27,52)                1.0859         estimate D2E/DX2                !
 ! R59   R(28,53)                1.0939         estimate D2E/DX2                !
 ! R60   R(28,54)                1.0964         estimate D2E/DX2                !
 ! R61   R(28,55)                1.0948         estimate D2E/DX2                !
 ! R62   R(29,56)                1.0947         estimate D2E/DX2                !
 ! R63   R(29,57)                1.0965         estimate D2E/DX2                !
 ! R64   R(29,58)                1.0948         estimate D2E/DX2                !
 ! R65   R(32,59)                1.0951         estimate D2E/DX2                !
 ! R66   R(32,60)                1.0945         estimate D2E/DX2                !
 ! R67   R(32,61)                1.0948         estimate D2E/DX2                !
 ! R68   R(62,63)                1.0929         estimate D2E/DX2                !
 ! R69   R(62,64)                1.0946         estimate D2E/DX2                !
 ! R70   R(62,65)                1.0948         estimate D2E/DX2                !
 ! A1    A(2,1,6)              122.6499         estimate D2E/DX2                !
 ! A2    A(2,1,33)             120.3086         estimate D2E/DX2                !
 ! A3    A(6,1,33)             116.9274         estimate D2E/DX2                !
 ! A4    A(1,2,3)              121.2693         estimate D2E/DX2                !
 ! A5    A(1,2,32)             121.9092         estimate D2E/DX2                !
 ! A6    A(3,2,32)             116.8186         estimate D2E/DX2                !
 ! A7    A(2,3,4)              116.258          estimate D2E/DX2                !
 ! A8    A(2,3,20)             112.9688         estimate D2E/DX2                !
 ! A9    A(2,3,31)             107.1556         estimate D2E/DX2                !
 ! A10   A(4,3,20)             104.6853         estimate D2E/DX2                !
 ! A11   A(4,3,31)             107.6324         estimate D2E/DX2                !
 ! A12   A(20,3,31)            107.7757         estimate D2E/DX2                !
 ! A13   A(3,4,5)              117.7277         estimate D2E/DX2                !
 ! A14   A(3,4,7)              104.2107         estimate D2E/DX2                !
 ! A15   A(3,4,24)             106.5044         estimate D2E/DX2                !
 ! A16   A(5,4,7)              115.0207         estimate D2E/DX2                !
 ! A17   A(5,4,24)             105.6804         estimate D2E/DX2                !
 ! A18   A(7,4,24)             107.007          estimate D2E/DX2                !
 ! A19   A(4,5,6)              114.4241         estimate D2E/DX2                !
 ! A20   A(4,5,10)             113.0374         estimate D2E/DX2                !
 ! A21   A(4,5,22)             103.6217         estimate D2E/DX2                !
 ! A22   A(6,5,10)             104.7571         estimate D2E/DX2                !
 ! A23   A(6,5,22)             111.5624         estimate D2E/DX2                !
 ! A24   A(10,5,22)            109.5459         estimate D2E/DX2                !
 ! A25   A(1,6,5)              115.0525         estimate D2E/DX2                !
 ! A26   A(1,6,34)             108.5754         estimate D2E/DX2                !
 ! A27   A(1,6,35)             106.9411         estimate D2E/DX2                !
 ! A28   A(5,6,34)             109.3638         estimate D2E/DX2                !
 ! A29   A(5,6,35)             111.3288         estimate D2E/DX2                !
 ! A30   A(34,6,35)            105.0702         estimate D2E/DX2                !
 ! A31   A(4,7,8)              115.4595         estimate D2E/DX2                !
 ! A32   A(4,7,17)             108.0503         estimate D2E/DX2                !
 ! A33   A(4,7,21)             111.8174         estimate D2E/DX2                !
 ! A34   A(8,7,17)             100.4372         estimate D2E/DX2                !
 ! A35   A(8,7,21)             108.5563         estimate D2E/DX2                !
 ! A36   A(17,7,21)            112.0399         estimate D2E/DX2                !
 ! A37   A(7,8,9)              122.9912         estimate D2E/DX2                !
 ! A38   A(7,8,19)             113.2665         estimate D2E/DX2                !
 ! A39   A(9,8,19)             123.5536         estimate D2E/DX2                !
 ! A40   A(8,9,10)             116.5849         estimate D2E/DX2                !
 ! A41   A(8,9,11)             121.3508         estimate D2E/DX2                !
 ! A42   A(10,9,11)            121.9713         estimate D2E/DX2                !
 ! A43   A(5,10,9)             117.6107         estimate D2E/DX2                !
 ! A44   A(5,10,16)            122.1432         estimate D2E/DX2                !
 ! A45   A(9,10,16)            119.7851         estimate D2E/DX2                !
 ! A46   A(9,11,12)            119.7293         estimate D2E/DX2                !
 ! A47   A(9,11,13)            117.6589         estimate D2E/DX2                !
 ! A48   A(12,11,13)           122.5966         estimate D2E/DX2                !
 ! A49   A(11,13,14)           110.9715         estimate D2E/DX2                !
 ! A50   A(11,13,15)           108.6749         estimate D2E/DX2                !
 ! A51   A(11,13,36)           109.485          estimate D2E/DX2                !
 ! A52   A(14,13,15)           110.2938         estimate D2E/DX2                !
 ! A53   A(14,13,36)           108.9482         estimate D2E/DX2                !
 ! A54   A(15,13,36)           108.4247         estimate D2E/DX2                !
 ! A55   A(13,14,37)           110.581          estimate D2E/DX2                !
 ! A56   A(13,14,38)           109.2665         estimate D2E/DX2                !
 ! A57   A(13,14,62)           112.9141         estimate D2E/DX2                !
 ! A58   A(37,14,38)           106.8773         estimate D2E/DX2                !
 ! A59   A(37,14,62)           108.8996         estimate D2E/DX2                !
 ! A60   A(38,14,62)           108.0939         estimate D2E/DX2                !
 ! A61   A(13,15,39)           110.7697         estimate D2E/DX2                !
 ! A62   A(13,15,40)           111.1738         estimate D2E/DX2                !
 ! A63   A(13,15,41)           111.393          estimate D2E/DX2                !
 ! A64   A(39,15,40)           107.9555         estimate D2E/DX2                !
 ! A65   A(39,15,41)           108.023          estimate D2E/DX2                !
 ! A66   A(40,15,41)           107.3673         estimate D2E/DX2                !
 ! A67   A(7,17,18)            103.1605         estimate D2E/DX2                !
 ! A68   A(7,17,20)            102.3492         estimate D2E/DX2                !
 ! A69   A(7,17,30)            112.7139         estimate D2E/DX2                !
 ! A70   A(18,17,20)           116.6779         estimate D2E/DX2                !
 ! A71   A(18,17,30)           111.5459         estimate D2E/DX2                !
 ! A72   A(20,17,30)           109.9102         estimate D2E/DX2                !
 ! A73   A(17,18,19)           106.3959         estimate D2E/DX2                !
 ! A74   A(17,18,28)           112.1651         estimate D2E/DX2                !
 ! A75   A(17,18,29)           113.5955         estimate D2E/DX2                !
 ! A76   A(19,18,28)           107.591          estimate D2E/DX2                !
 ! A77   A(19,18,29)           108.2188         estimate D2E/DX2                !
 ! A78   A(28,18,29)           108.6202         estimate D2E/DX2                !
 ! A79   A(8,19,18)            106.6456         estimate D2E/DX2                !
 ! A80   A(3,20,17)            103.0955         estimate D2E/DX2                !
 ! A81   A(3,20,42)            112.0375         estimate D2E/DX2                !
 ! A82   A(3,20,43)            110.4888         estimate D2E/DX2                !
 ! A83   A(17,20,42)           111.3042         estimate D2E/DX2                !
 ! A84   A(17,20,43)           112.2083         estimate D2E/DX2                !
 ! A85   A(42,20,43)           107.7423         estimate D2E/DX2                !
 ! A86   A(7,21,44)            105.5677         estimate D2E/DX2                !
 ! A87   A(5,22,23)            105.134          estimate D2E/DX2                !
 ! A88   A(5,22,45)            113.6076         estimate D2E/DX2                !
 ! A89   A(5,22,46)            110.9402         estimate D2E/DX2                !
 ! A90   A(23,22,45)           111.1998         estimate D2E/DX2                !
 ! A91   A(23,22,46)           109.3783         estimate D2E/DX2                !
 ! A92   A(45,22,46)           106.5926         estimate D2E/DX2                !
 ! A93   A(22,23,24)           103.714          estimate D2E/DX2                !
 ! A94   A(22,23,25)           113.8071         estimate D2E/DX2                !
 ! A95   A(22,23,47)           110.9684         estimate D2E/DX2                !
 ! A96   A(24,23,25)           111.6066         estimate D2E/DX2                !
 ! A97   A(24,23,47)           107.7429         estimate D2E/DX2                !
 ! A98   A(25,23,47)           108.7923         estimate D2E/DX2                !
 ! A99   A(4,24,23)            107.216          estimate D2E/DX2                !
 ! A100  A(23,25,26)           115.3596         estimate D2E/DX2                !
 ! A101  A(23,25,27)           124.2028         estimate D2E/DX2                !
 ! A102  A(26,25,27)           120.4275         estimate D2E/DX2                !
 ! A103  A(25,26,48)           110.6001         estimate D2E/DX2                !
 ! A104  A(25,26,49)           110.2653         estimate D2E/DX2                !
 ! A105  A(25,26,50)           112.1647         estimate D2E/DX2                !
 ! A106  A(48,26,49)           108.5827         estimate D2E/DX2                !
 ! A107  A(48,26,50)           107.5535         estimate D2E/DX2                !
 ! A108  A(49,26,50)           107.5387         estimate D2E/DX2                !
 ! A109  A(25,27,51)           122.0279         estimate D2E/DX2                !
 ! A110  A(25,27,52)           121.5131         estimate D2E/DX2                !
 ! A111  A(51,27,52)           116.459          estimate D2E/DX2                !
 ! A112  A(18,28,53)           112.1607         estimate D2E/DX2                !
 ! A113  A(18,28,54)           110.605          estimate D2E/DX2                !
 ! A114  A(18,28,55)           111.3374         estimate D2E/DX2                !
 ! A115  A(53,28,54)           105.652          estimate D2E/DX2                !
 ! A116  A(53,28,55)           108.4974         estimate D2E/DX2                !
 ! A117  A(54,28,55)           108.3571         estimate D2E/DX2                !
 ! A118  A(18,29,56)           111.4514         estimate D2E/DX2                !
 ! A119  A(18,29,57)           110.6919         estimate D2E/DX2                !
 ! A120  A(18,29,58)           111.803          estimate D2E/DX2                !
 ! A121  A(56,29,57)           108.3207         estimate D2E/DX2                !
 ! A122  A(56,29,58)           108.9016         estimate D2E/DX2                !
 ! A123  A(57,29,58)           105.4374         estimate D2E/DX2                !
 ! A124  A(2,32,59)            112.0626         estimate D2E/DX2                !
 ! A125  A(2,32,60)            110.4451         estimate D2E/DX2                !
 ! A126  A(2,32,61)            110.2633         estimate D2E/DX2                !
 ! A127  A(59,32,60)           107.6899         estimate D2E/DX2                !
 ! A128  A(59,32,61)           107.6652         estimate D2E/DX2                !
 ! A129  A(60,32,61)           108.5916         estimate D2E/DX2                !
 ! A130  A(14,62,63)           111.4447         estimate D2E/DX2                !
 ! A131  A(14,62,64)           111.1359         estimate D2E/DX2                !
 ! A132  A(14,62,65)           110.0365         estimate D2E/DX2                !
 ! A133  A(63,62,64)           108.5119         estimate D2E/DX2                !
 ! A134  A(63,62,65)           107.5742         estimate D2E/DX2                !
 ! A135  A(64,62,65)           108.0047         estimate D2E/DX2                !
 ! D1    D(6,1,2,3)              2.2341         estimate D2E/DX2                !
 ! D2    D(6,1,2,32)          -177.128          estimate D2E/DX2                !
 ! D3    D(33,1,2,3)           178.2309         estimate D2E/DX2                !
 ! D4    D(33,1,2,32)           -1.1313         estimate D2E/DX2                !
 ! D5    D(2,1,6,5)            -32.5984         estimate D2E/DX2                !
 ! D6    D(2,1,6,34)          -155.4998         estimate D2E/DX2                !
 ! D7    D(2,1,6,35)            91.6017         estimate D2E/DX2                !
 ! D8    D(33,1,6,5)           151.2778         estimate D2E/DX2                !
 ! D9    D(33,1,6,34)           28.3764         estimate D2E/DX2                !
 ! D10   D(33,1,6,35)          -84.5221         estimate D2E/DX2                !
 ! D11   D(1,2,3,4)             22.4135         estimate D2E/DX2                !
 ! D12   D(1,2,3,20)           -98.6578         estimate D2E/DX2                !
 ! D13   D(1,2,3,31)           142.7966         estimate D2E/DX2                !
 ! D14   D(32,2,3,4)          -158.1932         estimate D2E/DX2                !
 ! D15   D(32,2,3,20)           80.7354         estimate D2E/DX2                !
 ! D16   D(32,2,3,31)          -37.8102         estimate D2E/DX2                !
 ! D17   D(1,2,32,59)           -0.201          estimate D2E/DX2                !
 ! D18   D(1,2,32,60)          119.8657         estimate D2E/DX2                !
 ! D19   D(1,2,32,61)         -120.1124         estimate D2E/DX2                !
 ! D20   D(3,2,32,59)         -179.59           estimate D2E/DX2                !
 ! D21   D(3,2,32,60)          -59.5233         estimate D2E/DX2                !
 ! D22   D(3,2,32,61)           60.4985         estimate D2E/DX2                !
 ! D23   D(2,3,4,5)            -15.7416         estimate D2E/DX2                !
 ! D24   D(2,3,4,7)           -144.4975         estimate D2E/DX2                !
 ! D25   D(2,3,4,24)           102.5654         estimate D2E/DX2                !
 ! D26   D(20,3,4,5)           109.6464         estimate D2E/DX2                !
 ! D27   D(20,3,4,7)           -19.1096         estimate D2E/DX2                !
 ! D28   D(20,3,4,24)         -132.0467         estimate D2E/DX2                !
 ! D29   D(31,3,4,5)          -135.8686         estimate D2E/DX2                !
 ! D30   D(31,3,4,7)            95.3754         estimate D2E/DX2                !
 ! D31   D(31,3,4,24)          -17.5616         estimate D2E/DX2                !
 ! D32   D(2,3,20,17)          165.3207         estimate D2E/DX2                !
 ! D33   D(2,3,20,42)          -74.9049         estimate D2E/DX2                !
 ! D34   D(2,3,20,43)           45.2415         estimate D2E/DX2                !
 ! D35   D(4,3,20,17)           37.8894         estimate D2E/DX2                !
 ! D36   D(4,3,20,42)          157.6638         estimate D2E/DX2                !
 ! D37   D(4,3,20,43)          -82.1898         estimate D2E/DX2                !
 ! D38   D(31,3,20,17)         -76.495          estimate D2E/DX2                !
 ! D39   D(31,3,20,42)          43.2793         estimate D2E/DX2                !
 ! D40   D(31,3,20,43)         163.4258         estimate D2E/DX2                !
 ! D41   D(3,4,5,6)            -12.5861         estimate D2E/DX2                !
 ! D42   D(3,4,5,10)          -132.3955         estimate D2E/DX2                !
 ! D43   D(3,4,5,22)           109.1067         estimate D2E/DX2                !
 ! D44   D(7,4,5,6)            110.8765         estimate D2E/DX2                !
 ! D45   D(7,4,5,10)            -8.9329         estimate D2E/DX2                !
 ! D46   D(7,4,5,22)          -127.4307         estimate D2E/DX2                !
 ! D47   D(24,4,5,6)          -131.3304         estimate D2E/DX2                !
 ! D48   D(24,4,5,10)          108.8602         estimate D2E/DX2                !
 ! D49   D(24,4,5,22)           -9.6376         estimate D2E/DX2                !
 ! D50   D(3,4,7,8)            104.5416         estimate D2E/DX2                !
 ! D51   D(3,4,7,17)            -6.939          estimate D2E/DX2                !
 ! D52   D(3,4,7,21)          -130.6903         estimate D2E/DX2                !
 ! D53   D(5,4,7,8)            -25.8389         estimate D2E/DX2                !
 ! D54   D(5,4,7,17)          -137.3195         estimate D2E/DX2                !
 ! D55   D(5,4,7,21)            98.9292         estimate D2E/DX2                !
 ! D56   D(24,4,7,8)          -142.8821         estimate D2E/DX2                !
 ! D57   D(24,4,7,17)          105.6373         estimate D2E/DX2                !
 ! D58   D(24,4,7,21)          -18.114          estimate D2E/DX2                !
 ! D59   D(3,4,24,23)          -94.9214         estimate D2E/DX2                !
 ! D60   D(5,4,24,23)           31.0369         estimate D2E/DX2                !
 ! D61   D(7,4,24,23)          154.0783         estimate D2E/DX2                !
 ! D62   D(4,5,6,1)             35.8331         estimate D2E/DX2                !
 ! D63   D(4,5,6,34)           158.3122         estimate D2E/DX2                !
 ! D64   D(4,5,6,35)           -86.0246         estimate D2E/DX2                !
 ! D65   D(10,5,6,1)           160.1712         estimate D2E/DX2                !
 ! D66   D(10,5,6,34)          -77.3496         estimate D2E/DX2                !
 ! D67   D(10,5,6,35)           38.3136         estimate D2E/DX2                !
 ! D68   D(22,5,6,1)           -81.3979         estimate D2E/DX2                !
 ! D69   D(22,5,6,34)           41.0813         estimate D2E/DX2                !
 ! D70   D(22,5,6,35)          156.7445         estimate D2E/DX2                !
 ! D71   D(4,5,10,9)            40.6358         estimate D2E/DX2                !
 ! D72   D(4,5,10,16)         -147.1778         estimate D2E/DX2                !
 ! D73   D(6,5,10,9)           -84.5803         estimate D2E/DX2                !
 ! D74   D(6,5,10,16)           87.6061         estimate D2E/DX2                !
 ! D75   D(22,5,10,9)          155.6309         estimate D2E/DX2                !
 ! D76   D(22,5,10,16)         -32.1828         estimate D2E/DX2                !
 ! D77   D(4,5,22,23)          -13.369          estimate D2E/DX2                !
 ! D78   D(4,5,22,45)         -135.174          estimate D2E/DX2                !
 ! D79   D(4,5,22,46)          104.7645         estimate D2E/DX2                !
 ! D80   D(6,5,22,23)          110.2199         estimate D2E/DX2                !
 ! D81   D(6,5,22,45)          -11.5852         estimate D2E/DX2                !
 ! D82   D(6,5,22,46)         -131.6467         estimate D2E/DX2                !
 ! D83   D(10,5,22,23)        -134.2536         estimate D2E/DX2                !
 ! D84   D(10,5,22,45)         103.9414         estimate D2E/DX2                !
 ! D85   D(10,5,22,46)         -16.1201         estimate D2E/DX2                !
 ! D86   D(4,7,8,9)             35.0245         estimate D2E/DX2                !
 ! D87   D(4,7,8,19)          -140.142          estimate D2E/DX2                !
 ! D88   D(17,7,8,9)           150.915          estimate D2E/DX2                !
 ! D89   D(17,7,8,19)          -24.2515         estimate D2E/DX2                !
 ! D90   D(21,7,8,9)           -91.4183         estimate D2E/DX2                !
 ! D91   D(21,7,8,19)           93.4151         estimate D2E/DX2                !
 ! D92   D(4,7,17,18)          151.6163         estimate D2E/DX2                !
 ! D93   D(4,7,17,20)           30.0694         estimate D2E/DX2                !
 ! D94   D(4,7,17,30)          -87.9369         estimate D2E/DX2                !
 ! D95   D(8,7,17,18)           30.3001         estimate D2E/DX2                !
 ! D96   D(8,7,17,20)          -91.2469         estimate D2E/DX2                !
 ! D97   D(8,7,17,30)          150.7468         estimate D2E/DX2                !
 ! D98   D(21,7,17,18)         -84.7668         estimate D2E/DX2                !
 ! D99   D(21,7,17,20)         153.6863         estimate D2E/DX2                !
 ! D100  D(21,7,17,30)          35.68           estimate D2E/DX2                !
 ! D101  D(4,7,21,44)           21.0498         estimate D2E/DX2                !
 ! D102  D(8,7,21,44)          149.5719         estimate D2E/DX2                !
 ! D103  D(17,7,21,44)        -100.4259         estimate D2E/DX2                !
 ! D104  D(7,8,9,10)            -3.6762         estimate D2E/DX2                !
 ! D105  D(7,8,9,11)           179.7643         estimate D2E/DX2                !
 ! D106  D(19,8,9,10)          170.9942         estimate D2E/DX2                !
 ! D107  D(19,8,9,11)           -5.5653         estimate D2E/DX2                !
 ! D108  D(7,8,19,18)            6.6472         estimate D2E/DX2                !
 ! D109  D(9,8,19,18)         -168.488          estimate D2E/DX2                !
 ! D110  D(8,9,10,5)           -35.5554         estimate D2E/DX2                !
 ! D111  D(8,9,10,16)          152.0664         estimate D2E/DX2                !
 ! D112  D(11,9,10,5)          140.981          estimate D2E/DX2                !
 ! D113  D(11,9,10,16)         -31.3972         estimate D2E/DX2                !
 ! D114  D(8,9,11,12)           65.2335         estimate D2E/DX2                !
 ! D115  D(8,9,11,13)         -116.1492         estimate D2E/DX2                !
 ! D116  D(10,9,11,12)        -111.1394         estimate D2E/DX2                !
 ! D117  D(10,9,11,13)          67.4779         estimate D2E/DX2                !
 ! D118  D(9,11,13,14)         121.1419         estimate D2E/DX2                !
 ! D119  D(9,11,13,15)        -117.4163         estimate D2E/DX2                !
 ! D120  D(9,11,13,36)           0.8442         estimate D2E/DX2                !
 ! D121  D(12,11,13,14)        -60.2833         estimate D2E/DX2                !
 ! D122  D(12,11,13,15)         61.1585         estimate D2E/DX2                !
 ! D123  D(12,11,13,36)        179.419          estimate D2E/DX2                !
 ! D124  D(11,13,14,37)         53.5616         estimate D2E/DX2                !
 ! D125  D(11,13,14,38)        170.9337         estimate D2E/DX2                !
 ! D126  D(11,13,14,62)        -68.7389         estimate D2E/DX2                !
 ! D127  D(15,13,14,37)        -66.9256         estimate D2E/DX2                !
 ! D128  D(15,13,14,38)         50.4465         estimate D2E/DX2                !
 ! D129  D(15,13,14,62)        170.7738         estimate D2E/DX2                !
 ! D130  D(36,13,14,37)        174.1775         estimate D2E/DX2                !
 ! D131  D(36,13,14,38)        -68.4505         estimate D2E/DX2                !
 ! D132  D(36,13,14,62)         51.8769         estimate D2E/DX2                !
 ! D133  D(11,13,15,39)        175.8684         estimate D2E/DX2                !
 ! D134  D(11,13,15,40)         55.8367         estimate D2E/DX2                !
 ! D135  D(11,13,15,41)        -63.8687         estimate D2E/DX2                !
 ! D136  D(14,13,15,39)        -62.2757         estimate D2E/DX2                !
 ! D137  D(14,13,15,40)        177.6925         estimate D2E/DX2                !
 ! D138  D(14,13,15,41)         57.9871         estimate D2E/DX2                !
 ! D139  D(36,13,15,39)         56.9399         estimate D2E/DX2                !
 ! D140  D(36,13,15,40)        -63.0918         estimate D2E/DX2                !
 ! D141  D(36,13,15,41)        177.2027         estimate D2E/DX2                !
 ! D142  D(13,14,62,63)         65.9664         estimate D2E/DX2                !
 ! D143  D(13,14,62,64)        -55.203          estimate D2E/DX2                !
 ! D144  D(13,14,62,65)       -174.7885         estimate D2E/DX2                !
 ! D145  D(37,14,62,63)        -57.2716         estimate D2E/DX2                !
 ! D146  D(37,14,62,64)       -178.4409         estimate D2E/DX2                !
 ! D147  D(37,14,62,65)         61.9735         estimate D2E/DX2                !
 ! D148  D(38,14,62,63)       -173.0375         estimate D2E/DX2                !
 ! D149  D(38,14,62,64)         65.7931         estimate D2E/DX2                !
 ! D150  D(38,14,62,65)        -53.7924         estimate D2E/DX2                !
 ! D151  D(7,17,18,19)         -28.6228         estimate D2E/DX2                !
 ! D152  D(7,17,18,28)          88.7667         estimate D2E/DX2                !
 ! D153  D(7,17,18,29)        -147.5798         estimate D2E/DX2                !
 ! D154  D(20,17,18,19)         82.6797         estimate D2E/DX2                !
 ! D155  D(20,17,18,28)       -159.9308         estimate D2E/DX2                !
 ! D156  D(20,17,18,29)        -36.2773         estimate D2E/DX2                !
 ! D157  D(30,17,18,19)       -149.865          estimate D2E/DX2                !
 ! D158  D(30,17,18,28)        -32.4755         estimate D2E/DX2                !
 ! D159  D(30,17,18,29)         91.178          estimate D2E/DX2                !
 ! D160  D(7,17,20,3)          -41.639          estimate D2E/DX2                !
 ! D161  D(7,17,20,42)        -161.9176         estimate D2E/DX2                !
 ! D162  D(7,17,20,43)          77.2515         estimate D2E/DX2                !
 ! D163  D(18,17,20,3)        -153.407          estimate D2E/DX2                !
 ! D164  D(18,17,20,42)         86.3145         estimate D2E/DX2                !
 ! D165  D(18,17,20,43)        -34.5164         estimate D2E/DX2                !
 ! D166  D(30,17,20,3)          78.3412         estimate D2E/DX2                !
 ! D167  D(30,17,20,42)        -41.9373         estimate D2E/DX2                !
 ! D168  D(30,17,20,43)       -162.7682         estimate D2E/DX2                !
 ! D169  D(17,18,19,8)          14.0438         estimate D2E/DX2                !
 ! D170  D(28,18,19,8)        -106.3439         estimate D2E/DX2                !
 ! D171  D(29,18,19,8)         136.4631         estimate D2E/DX2                !
 ! D172  D(17,18,28,53)        -59.8901         estimate D2E/DX2                !
 ! D173  D(17,18,28,54)       -177.5585         estimate D2E/DX2                !
 ! D174  D(17,18,28,55)         61.9047         estimate D2E/DX2                !
 ! D175  D(19,18,28,53)         56.7835         estimate D2E/DX2                !
 ! D176  D(19,18,28,54)        -60.8849         estimate D2E/DX2                !
 ! D177  D(19,18,28,55)        178.5784         estimate D2E/DX2                !
 ! D178  D(29,18,28,53)        173.7148         estimate D2E/DX2                !
 ! D179  D(29,18,28,54)         56.0464         estimate D2E/DX2                !
 ! D180  D(29,18,28,55)        -64.4904         estimate D2E/DX2                !
 ! D181  D(17,18,29,56)        -57.6586         estimate D2E/DX2                !
 ! D182  D(17,18,29,57)       -178.2845         estimate D2E/DX2                !
 ! D183  D(17,18,29,58)         64.4858         estimate D2E/DX2                !
 ! D184  D(19,18,29,56)       -175.5665         estimate D2E/DX2                !
 ! D185  D(19,18,29,57)         63.8076         estimate D2E/DX2                !
 ! D186  D(19,18,29,58)        -53.4221         estimate D2E/DX2                !
 ! D187  D(28,18,29,56)         67.9049         estimate D2E/DX2                !
 ! D188  D(28,18,29,57)        -52.721          estimate D2E/DX2                !
 ! D189  D(28,18,29,58)       -169.9506         estimate D2E/DX2                !
 ! D190  D(5,22,23,24)          32.1783         estimate D2E/DX2                !
 ! D191  D(5,22,23,25)         153.6419         estimate D2E/DX2                !
 ! D192  D(5,22,23,47)         -83.2548         estimate D2E/DX2                !
 ! D193  D(45,22,23,24)        155.5367         estimate D2E/DX2                !
 ! D194  D(45,22,23,25)        -82.9997         estimate D2E/DX2                !
 ! D195  D(45,22,23,47)         40.1036         estimate D2E/DX2                !
 ! D196  D(46,22,23,24)        -87.0044         estimate D2E/DX2                !
 ! D197  D(46,22,23,25)         34.4592         estimate D2E/DX2                !
 ! D198  D(46,22,23,47)        157.5626         estimate D2E/DX2                !
 ! D199  D(22,23,24,4)         -39.5961         estimate D2E/DX2                !
 ! D200  D(25,23,24,4)        -162.5223         estimate D2E/DX2                !
 ! D201  D(47,23,24,4)          78.1032         estimate D2E/DX2                !
 ! D202  D(22,23,25,26)         67.5162         estimate D2E/DX2                !
 ! D203  D(22,23,25,27)       -113.6378         estimate D2E/DX2                !
 ! D204  D(24,23,25,26)       -175.5185         estimate D2E/DX2                !
 ! D205  D(24,23,25,27)          3.3275         estimate D2E/DX2                !
 ! D206  D(47,23,25,26)        -56.7674         estimate D2E/DX2                !
 ! D207  D(47,23,25,27)        122.0786         estimate D2E/DX2                !
 ! D208  D(23,25,26,48)        -63.4789         estimate D2E/DX2                !
 ! D209  D(23,25,26,49)         56.6328         estimate D2E/DX2                !
 ! D210  D(23,25,26,50)        176.4529         estimate D2E/DX2                !
 ! D211  D(27,25,26,48)        117.6279         estimate D2E/DX2                !
 ! D212  D(27,25,26,49)       -122.2603         estimate D2E/DX2                !
 ! D213  D(27,25,26,50)         -2.4402         estimate D2E/DX2                !
 ! D214  D(23,25,27,51)          0.5091         estimate D2E/DX2                !
 ! D215  D(23,25,27,52)       -179.4846         estimate D2E/DX2                !
 ! D216  D(26,25,27,51)        179.2997         estimate D2E/DX2                !
 ! D217  D(26,25,27,52)         -0.6939         estimate D2E/DX2                !
 --------------------------------------------------------------------------------
 Trust Radius=3.00D-01 FncErr=1.00D-07 GrdErr=1.00D-06
 Number of steps in this run=    390 maximum allowed number of steps=    390.
 GradGradGradGradGradGradGradGradGradGradGradGradGradGradGradGradGradGrad

 Stoichiometry    C26H34O5
 Framework group  C1[X(C26H34O5)]
 Deg. of freedom   189
 Full point group                 C1      NOp   1
 Largest Abelian subgroup         C1      NOp   1
 Largest concise Abelian subgroup C1      NOp   1
                         Standard orientation:                         
 ---------------------------------------------------------------------
 Center     Atomic      Atomic             Coordinates (Angstroms)
 Number     Number       Type             X           Y           Z
 ---------------------------------------------------------------------
      1          6           0       -2.124304    0.292772    2.731185
      2          6           0       -2.454970    1.380333    2.021061
      3          6           0       -1.869267    1.630814    0.657496
      4          6           0       -1.326239    0.382124   -0.099351
      5          6           0       -1.086148   -0.908963    0.720429
      6          6           0       -1.128477   -0.710468    2.251139
      7          6           0       -0.093211    0.908860   -0.863547
      8          6           0        1.226992    0.529587   -0.287811
      9          6           0        1.451326   -0.646841    0.305336
     10          6           0        0.287059   -1.550815    0.445807
     11          6           0        2.780178   -0.988201    0.860934
     12          8           0        3.226045   -0.348865    1.814225
     13          6           0        3.530745   -2.157380    0.233029
     14          6           0        4.892280   -1.705490   -0.315694
     15          6           0        3.719957   -3.243325    1.292529
     16          8           0        0.459566   -2.767911    0.482707
     17          6           0       -0.043993    2.414857   -0.694869
     18          6           0        1.459630    2.731050   -0.804132
     19          8           0        2.159742    1.554342   -0.334809
     20          6           0       -0.691596    2.612277    0.683253
     21          8           0       -0.116659    0.526097   -2.231548
     22          6           0       -2.202741   -1.855881    0.241245
     23          6           0       -3.171367   -0.971911   -0.521933
     24          8           0       -2.330969    0.033676   -1.098670
     25          6           0       -3.965568   -1.706445   -1.577916
     26          6           0       -4.956789   -2.712182   -1.055935
     27          6           0       -3.845146   -1.491884   -2.899689
     28          6           0        1.895217    2.982326   -2.256254
     29          6           0        1.899013    3.922285    0.051065
     30          1           0       -0.624057    2.946014   -1.459830
     31          1           0       -2.664006    2.075715    0.039511
     32          6           0       -3.411934    2.412041    2.547748
     33          1           0       -2.535036    0.141632    3.727348
     34          1           0       -1.338772   -1.672427    2.737373
     35          1           0       -0.149286   -0.401377    2.641136
     36          1           0        2.936394   -2.574640   -0.588650
     37          1           0        5.469297   -1.189803    0.461522
     38          1           0        5.473877   -2.587204   -0.611898
     39          1           0        4.191785   -4.131094    0.858673
     40          1           0        2.760299   -3.547400    1.722901
     41          1           0        4.351349   -2.892229    2.116423
     42          1           0       -1.022024    3.647077    0.823087
     43          1           0       -0.005095    2.366887    1.502987
     44          1           0       -1.054406    0.320143   -2.431173
     45          1           0       -2.708020   -2.386148    1.056009
     46          1           0       -1.802889   -2.624587   -0.432562
     47          1           0       -3.869175   -0.472720    0.161530
     48          1           0       -4.442818   -3.519693   -0.525083
     49          1           0       -5.657260   -2.231139   -0.365432
     50          1           0       -5.545642   -3.167468   -1.859516
     51          1           0       -3.147691   -0.765813   -3.303431
     52          1           0       -4.444589   -2.039702   -3.620545
     53          1           0        1.707766    2.117184   -2.898837
     54          1           0        2.975486    3.161782   -2.309474
     55          1           0        1.380234    3.849492   -2.682250
     56          1           0        1.342105    4.828345   -0.208266
     57          1           0        2.968140    4.123898   -0.085525
     58          1           0        1.774289    3.723192    1.120325
     59          1           0       -3.784158    2.156516    3.545420
     60          1           0       -2.922191    3.388497    2.615511
     61          1           0       -4.277241    2.500943    1.883033
     62          6           0        4.769412   -0.791290   -1.526995
     63          1           0        4.304575    0.161908   -1.262693
     64          1           0        4.174785   -1.260677   -2.317019
     65          1           0        5.761828   -0.573323   -1.934628
 ---------------------------------------------------------------------
 Rotational constants (GHZ):      0.2060467      0.1279095      0.1088647
 Standard basis: 6-31G(d) (6D, 7F)
 There are   533 symmetry adapted basis functions of A   symmetry.
 Integral buffers will be    131072 words long.
 Raffenetti 2 integral format.
 Two-electron integral symmetry is turned on.
   533 basis functions,  1004 primitive gaussians,   533 cartesian basis functions
   115 alpha electrons      115 beta electrons
       nuclear repulsion energy      3509.0581656435 Hartrees.
 NAtoms=   65 NActive=   65 NUniq=   65 SFac= 1.00D+00 NAtFMM=   50 NAOKFM=T Big=T
 One-electron integrals computed using PRISM.
 NBasis=   533 RedAO= T  NBF=   533
 NBsUse=   533 1.00D-06 NBFU=   533
 Harris functional with IExCor=  402 diagonalized for initial guess.
 ExpMin= 1.61D-01 ExpMax= 5.48D+03 ExpMxC= 8.25D+02 IAcc=1 IRadAn=         1 AccDes= 0.00D+00
 HarFok:  IExCor=  402 AccDes= 0.00D+00 IRadAn=         1 IDoV= 1
 ScaDFX=  1.000000  1.000000  1.000000  1.000000
 FoFCou: FMM=F IPFlag=           0 FMFlag=      100000 FMFlg1=        2001
         NFxFlg=           0 DoJE=T BraDBF=F KetDBF=T FulRan=T
         Omega=  0.000000  0.000000  1.000000  0.000000  0.000000 ICntrl=     500 IOpCl=  0
         NMat0=    1 NMatS0=    1 NMatT0=    0 NMatD0=    1 NMtDS0=    0 NMtDT0=    0
         I1Cent=           4 NGrid=           0.
 Petite list used in FoFCou.
 Initial guess orbital symmetries:
       Occupied  (A) (A) (A) (A) (A) (A) (A) (A) (A) (A) (A) (A)
                 (A) (A) (A) (A) (A) (A) (A) (A) (A) (A) (A) (A)
                 (A) (A) (A) (A) (A) (A) (A) (A) (A) (A) (A) (A)
                 (A) (A) (A) (A) (A) (A) (A) (A) (A) (A) (A) (A)
                 (A) (A) (A) (A) (A) (A) (A) (A) (A) (A) (A) (A)
                 (A) (A) (A) (A) (A) (A) (A) (A) (A) (A) (A) (A)
                 (A) (A) (A) (A) (A) (A) (A) (A) (A) (A) (A) (A)
                 (A) (A) (A) (A) (A) (A) (A) (A) (A) (A) (A) (A)
                 (A) (A) (A) (A) (A) (A) (A) (A) (A) (A) (A) (A)
                 (A) (A) (A) (A) (A) (A) (A)
       Virtual   (A) (A) (A) (A) (A) (A) (A) (A) (A) (A) (A) (A)
                 (A) (A) (A) (A) (A) (A) (A) (A) (A) (A) (A) (A)
                 (A) (A) (A) (A) (A) (A) (A) (A) (A) (A) (A) (A)
                 (A) (A) (A) (A) (A) (A) (A) (A) (A) (A) (A) (A)
                 (A) (A) (A) (A) (A) (A) (A) (A) (A) (A) (A) (A)
                 (A) (A) (A) (A) (A) (A) (A) (A) (A) (A) (A) (A)
                 (A) (A) (A) (A) (A) (A) (A) (A) (A) (A) (A) (A)
                 (A) (A) (A) (A) (A) (A) (A) (A) (A) (A) (A) (A)
                 (A) (A) (A) (A) (A) (A) (A) (A) (A) (A) (A) (A)
                 (A) (A) (A) (A) (A) (A) (A) (A) (A) (A) (A) (A)
                 (A) (A) (A) (A) (A) (A) (A) (A) (A) (A) (A) (A)
                 (A) (A) (A) (A) (A) (A) (A) (A) (A) (A) (A) (A)
                 (A) (A) (A) (A) (A) (A) (A) (A) (A) (A) (A) (A)
                 (A) (A) (A) (A) (A) (A) (A) (A) (A) (A) (A) (A)
                 (A) (A) (A) (A) (A) (A) (A) (A) (A) (A) (A) (A)
                 (A) (A) (A) (A) (A) (A) (A) (A) (A) (A) (A) (A)
                 (A) (A) (A) (A) (A) (A) (A) (A) (A) (A) (A) (A)
                 (A) (A) (A) (A) (A) (A) (A) (A) (A) (A) (A) (A)
                 (A) (A) (A) (A) (A) (A) (A) (A) (A) (A) (A) (A)
                 (A) (A) (A) (A) (A) (A) (A) (A) (A) (A) (A) (A)
                 (A) (A) (A) (A) (A) (A) (A) (A) (A) (A) (A) (A)
                 (A) (A) (A) (A) (A) (A) (A) (A) (A) (A) (A) (A)
                 (A) (A) (A) (A) (A) (A) (A) (A) (A) (A) (A) (A)
                 (A) (A) (A) (A) (A) (A) (A) (A) (A) (A) (A) (A)
                 (A) (A) (A) (A) (A) (A) (A) (A) (A) (A) (A) (A)
                 (A) (A) (A) (A) (A) (A) (A) (A) (A) (A) (A) (A)
                 (A) (A) (A) (A) (A) (A) (A) (A) (A) (A) (A) (A)
                 (A) (A) (A) (A) (A) (A) (A) (A) (A) (A) (A) (A)
                 (A) (A) (A) (A) (A) (A) (A) (A) (A) (A) (A) (A)
                 (A) (A) (A) (A) (A) (A) (A) (A) (A) (A) (A) (A)
                 (A) (A) (A) (A) (A) (A) (A) (A) (A) (A) (A) (A)
                 (A) (A) (A) (A) (A) (A) (A) (A) (A) (A) (A) (A)
                 (A) (A) (A) (A) (A) (A) (A) (A) (A) (A) (A) (A)
                 (A) (A) (A) (A) (A) (A) (A) (A) (A) (A) (A) (A)
                 (A) (A) (A) (A) (A) (A) (A) (A) (A) (A)
 The electronic state of the initial guess is 1-A.
 Requested convergence on RMS density matrix=1.00D-08 within 128 cycles.
 Requested convergence on MAX density matrix=1.00D-06.
 Requested convergence on             energy=1.00D-06.
 No special actions if energy rises.
 Integral accuracy reduced to 1.0D-05 until final iterations.
 Initial convergence to 1.0D-05 achieved.  Increase integral accuracy.
 SCF Done:  E(RB3LYP) =  -1387.30274190     A.U. after   16 cycles
             Convg  =    0.4076D-08             -V/T =  2.0091

 **********************************************************************

            Population analysis using the SCF density.

 **********************************************************************

 Orbital symmetries:
       Occupied  (A) (A) (A) (A) (A) (A) (A) (A) (A) (A) (A) (A)
                 (A) (A) (A) (A) (A) (A) (A) (A) (A) (A) (A) (A)
                 (A) (A) (A) (A) (A) (A) (A) (A) (A) (A) (A) (A)
                 (A) (A) (A) (A) (A) (A) (A) (A) (A) (A) (A) (A)
                 (A) (A) (A) (A) (A) (A) (A) (A) (A) (A) (A) (A)
                 (A) (A) (A) (A) (A) (A) (A) (A) (A) (A) (A) (A)
                 (A) (A) (A) (A) (A) (A) (A) (A) (A) (A) (A) (A)
                 (A) (A) (A) (A) (A) (A) (A) (A) (A) (A) (A) (A)
                 (A) (A) (A) (A) (A) (A) (A) (A) (A) (A) (A) (A)
                 (A) (A) (A) (A) (A) (A) (A)
       Virtual   (A) (A) (A) (A) (A) (A) (A) (A) (A) (A) (A) (A)
                 (A) (A) (A) (A) (A) (A) (A) (A) (A) (A) (A) (A)
                 (A) (A) (A) (A) (A) (A) (A) (A) (A) (A) (A) (A)
                 (A) (A) (A) (A) (A) (A) (A) (A) (A) (A) (A) (A)
                 (A) (A) (A) (A) (A) (A) (A) (A) (A) (A) (A) (A)
                 (A) (A) (A) (A) (A) (A) (A) (A) (A) (A) (A) (A)
                 (A) (A) (A) (A) (A) (A) (A) (A) (A) (A) (A) (A)
                 (A) (A) (A) (A) (A) (A) (A) (A) (A) (A) (A) (A)
                 (A) (A) (A) (A) (A) (A) (A) (A) (A) (A) (A) (A)
                 (A) (A) (A) (A) (A) (A) (A) (A) (A) (A) (A) (A)
                 (A) (A) (A) (A) (A) (A) (A) (A) (A) (A) (A) (A)
                 (A) (A) (A) (A) (A) (A) (A) (A) (A) (A) (A) (A)
                 (A) (A) (A) (A) (A) (A) (A) (A) (A) (A) (A) (A)
                 (A) (A) (A) (A) (A) (A) (A) (A) (A) (A) (A) (A)
                 (A) (A) (A) (A) (A) (A) (A) (A) (A) (A) (A) (A)
                 (A) (A) (A) (A) (A) (A) (A) (A) (A) (A) (A) (A)
                 (A) (A) (A) (A) (A) (A) (A) (A) (A) (A) (A) (A)
                 (A) (A) (A) (A) (A) (A) (A) (A) (A) (A) (A) (A)
                 (A) (A) (A) (A) (A) (A) (A) (A) (A) (A) (A) (A)
                 (A) (A) (A) (A) (A) (A) (A) (A) (A) (A) (A) (A)
                 (A) (A) (A) (A) (A) (A) (A) (A) (A) (A) (A) (A)
                 (A) (A) (A) (A) (A) (A) (A) (A) (A) (A) (A) (A)
                 (A) (A) (A) (A) (A) (A) (A) (A) (A) (A) (A) (A)
                 (A) (A) (A) (A) (A) (A) (A) (A) (A) (A) (A) (A)
                 (A) (A) (A) (A) (A) (A) (A) (A) (A) (A) (A) (A)
                 (A) (A) (A) (A) (A) (A) (A) (A) (A) (A) (A) (A)
                 (A) (A) (A) (A) (A) (A) (A) (A) (A) (A) (A) (A)
                 (A) (A) (A) (A) (A) (A) (A) (A) (A) (A) (A) (A)
                 (A) (A) (A) (A) (A) (A) (A) (A) (A) (A) (A) (A)
                 (A) (A) (A) (A) (A) (A) (A) (A) (A) (A) (A) (A)
                 (A) (A) (A) (A) (A) (A) (A) (A) (A) (A) (A) (A)
                 (A) (A) (A) (A) (A) (A) (A) (A) (A) (A) (A) (A)
                 (A) (A) (A) (A) (A) (A) (A) (A) (A) (A) (A) (A)
                 (A) (A) (A) (A) (A) (A) (A) (A) (A) (A) (A) (A)
                 (A) (A) (A) (A) (A) (A) (A) (A) (A) (A)
 The electronic state is 1-A.
 Alpha  occ. eigenvalues --  -19.19309 -19.17023 -19.14545 -19.13748 -19.13261
 Alpha  occ. eigenvalues --  -10.27939 -10.26911 -10.26584 -10.26356 -10.25793
 Alpha  occ. eigenvalues --  -10.25577 -10.24908 -10.22011 -10.20418 -10.20236
 Alpha  occ. eigenvalues --  -10.19984 -10.19889 -10.19814 -10.19809 -10.19202
 Alpha  occ. eigenvalues --  -10.19144 -10.18978 -10.18882 -10.18816 -10.18382
 Alpha  occ. eigenvalues --  -10.18015 -10.17892 -10.17522 -10.17143 -10.16204
 Alpha  occ. eigenvalues --  -10.15996  -1.08326  -1.06327  -1.03563  -1.02375
 Alpha  occ. eigenvalues --   -1.01861  -0.87684  -0.83989  -0.82686  -0.81702
 Alpha  occ. eigenvalues --   -0.80363  -0.79732  -0.77046  -0.74451  -0.73598
 Alpha  occ. eigenvalues --   -0.72558  -0.71802  -0.69493  -0.69003  -0.68517
 Alpha  occ. eigenvalues --   -0.65269  -0.63809  -0.63657  -0.61806  -0.61228
 Alpha  occ. eigenvalues --   -0.59233  -0.59196  -0.57169  -0.54854  -0.53605
 Alpha  occ. eigenvalues --   -0.53061  -0.51893  -0.51062  -0.50639  -0.49656
 Alpha  occ. eigenvalues --   -0.48474  -0.47945  -0.46881  -0.46114  -0.45680
 Alpha  occ. eigenvalues --   -0.45306  -0.44535  -0.44037  -0.43363  -0.42909
 Alpha  occ. eigenvalues --   -0.42859  -0.42640  -0.42204  -0.42101  -0.41767
 Alpha  occ. eigenvalues --   -0.40881  -0.40573  -0.40463  -0.40176  -0.39833
 Alpha  occ. eigenvalues --   -0.39767  -0.39275  -0.38721  -0.38572  -0.38256
 Alpha  occ. eigenvalues --   -0.37877  -0.37473  -0.36905  -0.36217  -0.35946
 Alpha  occ. eigenvalues --   -0.35530  -0.35274  -0.34816  -0.34691  -0.34362
 Alpha  occ. eigenvalues --   -0.34070  -0.33267  -0.33063  -0.32815  -0.32015
 Alpha  occ. eigenvalues --   -0.31965  -0.31823  -0.30826  -0.28210  -0.26983
 Alpha  occ. eigenvalues --   -0.25198  -0.25045  -0.24189  -0.23740  -0.23203
 Alpha virt. eigenvalues --   -0.04804  -0.01705   0.01074   0.01823   0.02997
 Alpha virt. eigenvalues --    0.06415   0.08219   0.08494   0.09267   0.10076
 Alpha virt. eigenvalues --    0.10430   0.10721   0.11268   0.11643   0.12292
 Alpha virt. eigenvalues --    0.12472   0.13040   0.13474   0.13738   0.14028
 Alpha virt. eigenvalues --    0.14221   0.14642   0.14939   0.15445   0.15650
 Alpha virt. eigenvalues --    0.15886   0.16323   0.16641   0.16838   0.17558
 Alpha virt. eigenvalues --    0.17884   0.18281   0.18561   0.18860   0.19379
 Alpha virt. eigenvalues --    0.19470   0.19633   0.19951   0.20066   0.20676
 Alpha virt. eigenvalues --    0.20905   0.21266   0.21467   0.21594   0.22618
 Alpha virt. eigenvalues --    0.23039   0.23814   0.24036   0.24450   0.25026
 Alpha virt. eigenvalues --    0.25577   0.25760   0.26335   0.26622   0.27027
 Alpha virt. eigenvalues --    0.27222   0.27726   0.28223   0.28416   0.30110
 Alpha virt. eigenvalues --    0.31451   0.32503   0.32830   0.34093   0.34366
 Alpha virt. eigenvalues --    0.34689   0.36070   0.37658   0.38137   0.39647
 Alpha virt. eigenvalues --    0.40856   0.44792   0.46155   0.48160   0.48217
 Alpha virt. eigenvalues --    0.49794   0.50266   0.50513   0.51412   0.51949
 Alpha virt. eigenvalues --    0.52281   0.52601   0.52901   0.53298   0.53971
 Alpha virt. eigenvalues --    0.54247   0.54543   0.55005   0.55446   0.55673
 Alpha virt. eigenvalues --    0.56370   0.57235   0.57830   0.58048   0.59456
 Alpha virt. eigenvalues --    0.59849   0.60391   0.60508   0.61403   0.61920
 Alpha virt. eigenvalues --    0.62620   0.62998   0.63760   0.64057   0.64553
 Alpha virt. eigenvalues --    0.65062   0.65782   0.66070   0.66271   0.67148
 Alpha virt. eigenvalues --    0.67307   0.67863   0.68585   0.69322   0.69933
 Alpha virt. eigenvalues --    0.70502   0.70736   0.71670   0.72440   0.73335
 Alpha virt. eigenvalues --    0.73868   0.74168   0.75054   0.75776   0.76190
 Alpha virt. eigenvalues --    0.76933   0.77140   0.77709   0.78832   0.79391
 Alpha virt. eigenvalues --    0.79495   0.80048   0.80917   0.81998   0.82204
 Alpha virt. eigenvalues --    0.82684   0.83024   0.83600   0.84267   0.85241
 Alpha virt. eigenvalues --    0.85464   0.85846   0.86051   0.86732   0.87284
 Alpha virt. eigenvalues --    0.87459   0.87800   0.88551   0.88572   0.89195
 Alpha virt. eigenvalues --    0.89831   0.89907   0.90146   0.90463   0.90853
 Alpha virt. eigenvalues --    0.91088   0.91337   0.91506   0.91757   0.92285
 Alpha virt. eigenvalues --    0.92930   0.93469   0.93922   0.94298   0.94871
 Alpha virt. eigenvalues --    0.95353   0.95636   0.95981   0.96227   0.96653
 Alpha virt. eigenvalues --    0.96985   0.98148   0.98679   0.99147   0.99655
 Alpha virt. eigenvalues --    1.00041   1.00644   1.01708   1.01916   1.03058
 Alpha virt. eigenvalues --    1.03850   1.04631   1.05640   1.06395   1.07895
 Alpha virt. eigenvalues --    1.09344   1.10593   1.10695   1.11874   1.12562
 Alpha virt. eigenvalues --    1.13222   1.13447   1.14887   1.15637   1.16449
 Alpha virt. eigenvalues --    1.16938   1.17357   1.17964   1.19632   1.21410
 Alpha virt. eigenvalues --    1.22480   1.24000   1.24868   1.26264   1.27749
 Alpha virt. eigenvalues --    1.28887   1.29902   1.30314   1.31832   1.33721
 Alpha virt. eigenvalues --    1.34964   1.37583   1.37759   1.38924   1.40019
 Alpha virt. eigenvalues --    1.40899   1.43273   1.44227   1.46166   1.46687
 Alpha virt. eigenvalues --    1.48826   1.50246   1.50638   1.51478   1.52421
 Alpha virt. eigenvalues --    1.53861   1.55189   1.56328   1.57520   1.58528
 Alpha virt. eigenvalues --    1.58571   1.59634   1.62375   1.63311   1.64052
 Alpha virt. eigenvalues --    1.64987   1.65984   1.66771   1.68020   1.68799
 Alpha virt. eigenvalues --    1.70668   1.71122   1.73497   1.73912   1.75300
 Alpha virt. eigenvalues --    1.75578   1.75797   1.77267   1.77922   1.78762
 Alpha virt. eigenvalues --    1.79445   1.79672   1.80236   1.81886   1.82123
 Alpha virt. eigenvalues --    1.82580   1.83499   1.84585   1.85050   1.85534
 Alpha virt. eigenvalues --    1.85897   1.87750   1.88401   1.88955   1.88980
 Alpha virt. eigenvalues --    1.89695   1.90135   1.90762   1.91128   1.92020
 Alpha virt. eigenvalues --    1.92447   1.93454   1.93607   1.95112   1.95814
 Alpha virt. eigenvalues --    1.96017   1.96564   1.97402   1.97579   1.98553
 Alpha virt. eigenvalues --    1.99111   1.99389   2.00196   2.00570   2.01109
 Alpha virt. eigenvalues --    2.01728   2.02072   2.02881   2.04626   2.05477
 Alpha virt. eigenvalues --    2.06183   2.07176   2.08404   2.09392   2.10497
 Alpha virt. eigenvalues --    2.11005   2.11612   2.12611   2.14372   2.14978
 Alpha virt. eigenvalues --    2.15553   2.16149   2.16806   2.17704   2.18612
 Alpha virt. eigenvalues --    2.19174   2.20252   2.20567   2.21836   2.22762
 Alpha virt. eigenvalues --    2.23440   2.24740   2.25537   2.26554   2.27228
 Alpha virt. eigenvalues --    2.28438   2.28481   2.29652   2.30032   2.30992
 Alpha virt. eigenvalues --    2.32025   2.32871   2.33155   2.33995   2.34249
 Alpha virt. eigenvalues --    2.35949   2.36986   2.39029   2.39308   2.39560
 Alpha virt. eigenvalues --    2.40614   2.41728   2.42157   2.42609   2.43456
 Alpha virt. eigenvalues --    2.44660   2.45320   2.46920   2.48154   2.48682
 Alpha virt. eigenvalues --    2.49799   2.51393   2.52017   2.52768   2.56325
 Alpha virt. eigenvalues --    2.56513   2.57836   2.58546   2.59772   2.60493
 Alpha virt. eigenvalues --    2.61511   2.63041   2.64646   2.65293   2.65915
 Alpha virt. eigenvalues --    2.67026   2.68279   2.70986   2.71770   2.72472
 Alpha virt. eigenvalues --    2.72888   2.73580   2.75459   2.75959   2.78587
 Alpha virt. eigenvalues --    2.79468   2.79612   2.80390   2.81445   2.85232
 Alpha virt. eigenvalues --    2.87868   2.88681   2.93848   2.94482   2.95232
 Alpha virt. eigenvalues --    2.97957   3.00590   3.01269   3.02249   3.02966
 Alpha virt. eigenvalues --    3.06454   3.07234   3.12674   3.16759   3.22262
 Alpha virt. eigenvalues --    3.22918   3.29129   4.01277   4.09920   4.12215
 Alpha virt. eigenvalues --    4.13677   4.15505   4.17445   4.18338   4.20094
 Alpha virt. eigenvalues --    4.22147   4.25051   4.25537   4.29011   4.31759
 Alpha virt. eigenvalues --    4.32837   4.34673   4.37611   4.43777   4.44651
 Alpha virt. eigenvalues --    4.45859   4.48536   4.51277   4.57767   4.62771
 Alpha virt. eigenvalues --    4.65392   4.67711   4.70568   4.75260   4.78207
 Alpha virt. eigenvalues --    4.89740   4.96304   5.26621
          Condensed to atoms (all electrons):
 Mulliken atomic charges:
              1
     1  C   -0.196432
     2  C    0.195728
     3  C   -0.193799
     4  C    0.317178
     5  C   -0.021158
     6  C   -0.330574
     7  C    0.198599
     8  C    0.415251
     9  C   -0.099810
    10  C    0.393822
    11  C    0.414345
    12  O   -0.463939
    13  C   -0.132033
    14  C   -0.251796
    15  C   -0.456626
    16  O   -0.488144
    17  C   -0.155288
    18  C    0.306010
    19  O   -0.527223
    20  C   -0.308405
    21  O   -0.674493
    22  C   -0.315006
    23  C    0.115920
    24  O   -0.593488
    25  C    0.181290
    26  C   -0.517509
    27  C   -0.391291
    28  C   -0.461007
    29  C   -0.462624
    30  H    0.146333
    31  H    0.151399
    32  C   -0.519801
    33  H    0.125908
    34  H    0.162051
    35  H    0.177176
    36  H    0.146689
    37  H    0.152274
    38  H    0.131177
    39  H    0.140896
    40  H    0.163297
    41  H    0.156437
    42  H    0.149398
    43  H    0.167313
    44  H    0.426151
    45  H    0.151280
    46  H    0.182510
    47  H    0.136621
    48  H    0.165733
    49  H    0.154341
    50  H    0.161139
    51  H    0.141851
    52  H    0.137826
    53  H    0.184382
    54  H    0.151463
    55  H    0.139433
    56  H    0.147516
    57  H    0.159728
    58  H    0.161528
    59  H    0.157849
    60  H    0.158099
    61  H    0.154864
    62  C   -0.464671
    63  H    0.163776
    64  H    0.142352
    65  H    0.138185
 Sum of Mulliken atomic charges =   0.00000
 Mulliken charges with hydrogens summed into heavy atoms:
              1
     1  C   -0.070524
     2  C    0.195728
     3  C   -0.042400
     4  C    0.317178
     5  C   -0.021158
     6  C    0.008653
     7  C    0.198599
     8  C    0.415251
     9  C   -0.099810
    10  C    0.393822
    11  C    0.414345
    12  O   -0.463939
    13  C    0.014656
    14  C    0.031655
    15  C    0.004004
    16  O   -0.488144
    17  C   -0.008955
    18  C    0.306010
    19  O   -0.527223
    20  C    0.008306
    21  O   -0.248342
    22  C    0.018784
    23  C    0.252541
    24  O   -0.593488
    25  C    0.181290
    26  C   -0.036296
    27  C   -0.111615
    28  C    0.014271
    29  C    0.006148
    32  C   -0.048989
    62  C   -0.020358
 Sum of Mulliken charges with hydrogens summed into heavy atoms =   0.00000
 Electronic spatial extent (au):  <R**2>=          11649.9538
 Charge=              0.0000 electrons
 Dipole moment (field-independent basis, Debye):
    X=             -4.3366    Y=              2.6894    Z=             -0.0954  Tot=              5.1037
 Quadrupole moment (field-independent basis, Debye-Ang):
   XX=           -181.3783   YY=           -177.9283   ZZ=           -186.8908
   XY=              2.2062   XZ=             -8.8609   YZ=              0.0185
 Traceless Quadrupole moment (field-independent basis, Debye-Ang):
   XX=              0.6875   YY=              4.1375   ZZ=             -4.8250
   XY=              2.2062   XZ=             -8.8609   YZ=              0.0185
 Octapole moment (field-independent basis, Debye-Ang**2):
  XXX=            -26.5899  YYY=             54.2205  ZZZ=             -2.8823  XYY=             -2.9078
  XXY=            -30.5799  XXZ=            -22.4971  XZZ=            -26.8360  YZZ=             -4.2368
  YYZ=            -10.7771  XYZ=             -7.6439
 Hexadecapole moment (field-independent basis, Debye-Ang**3):
 XXXX=          -8467.5997 YYYY=          -4494.7927 ZZZZ=          -2542.2087 XXXY=             57.1187
 XXXZ=            -60.7974 YYYX=             41.5451 YYYZ=            -14.2265 ZZZX=              8.5928
 ZZZY=            -10.6037 XXYY=          -2062.9408 XXZZ=          -1875.5639 YYZZ=          -1169.1600
 XXYZ=             38.7999 YYXZ=             11.4466 ZZXY=             22.3346
 N-N= 3.509058165643D+03 E-N=-1.024445627820D+04  KE= 1.374843208383D+03
 Calling FoFJK, ICntrl=      2127 FMM=T ISym2X=0 I1Cent= 0 IOpClX= 0 NMat=1 NMatS=1 NMatT=0.
 ***** Axes restored to original set *****
 -------------------------------------------------------------------
 Center     Atomic                   Forces (Hartrees/Bohr)
 Number     Number              X              Y              Z
 -------------------------------------------------------------------
      1        6           0.009756361   -0.000313184    0.000759654
      2        6          -0.008875745   -0.006179327    0.003494040
      3        6          -0.006672774   -0.009832899   -0.003139639
      4        6           0.010543097   -0.007179913    0.012616429
      5        6          -0.008751069    0.005202061    0.004012101
      6        6          -0.009394425   -0.008146606   -0.005542695
      7        6           0.020898662    0.015578793    0.012655895
      8        6          -0.002895597   -0.004651412   -0.029295449
      9        6           0.006966852   -0.007568406    0.008727797
     10        6          -0.014075895    0.018239802   -0.005617168
     11        6          -0.011836791   -0.005560103   -0.018214718
     12        8           0.001250049    0.012325394    0.014336453
     13        6          -0.006163772    0.002020180   -0.004449060
     14        6           0.004237327    0.004172457   -0.001665320
     15        6          -0.009317619   -0.005529482    0.000937073
     16        8           0.006120930   -0.010122318    0.003202414
     17        6           0.003047603   -0.006403011   -0.011851572
     18        6           0.030442363    0.004976003   -0.012472801
     19        8          -0.013227057   -0.009375968    0.034100171
     20        6           0.009411195   -0.001802911   -0.005842562
     21        8          -0.003222804    0.004908397    0.004965216
     22        6          -0.009643267   -0.001176290    0.008606915
     23        6           0.008520066    0.007130327    0.007963501
     24        8          -0.004050339    0.001668859   -0.008290374
     25        6           0.011736773    0.009479669    0.009648239
     26        6          -0.000214751   -0.000317639   -0.000308278
     27        6          -0.004373989   -0.006224741   -0.009065707
     28        6          -0.001581603    0.008418457    0.001769140
     29        6          -0.008420018   -0.000686913   -0.007810225
     30        1          -0.003114827    0.001832717    0.000213725
     31        1          -0.001781697    0.005930351    0.000609118
     32        6          -0.002585435   -0.000497411    0.000208320
     33        1           0.000514988   -0.000748119    0.000028511
     34        1           0.000500458    0.005115620   -0.000237470
     35        1          -0.000533223    0.004703476   -0.001355072
     36        1           0.001353428   -0.001947211   -0.000701574
     37        1          -0.002578945   -0.002786921    0.001364235
     38        1          -0.003101215   -0.001704683    0.001132837
     39        1           0.000470426    0.000931328    0.000386871
     40        1          -0.000108184    0.001078689    0.001311113
     41        1           0.002039333    0.000587930   -0.000596096
     42        1          -0.002013731   -0.001562132   -0.001440817
     43        1           0.000374286    0.001057556    0.000732697
     44        1          -0.003017735    0.001207637   -0.003948798
     45        1          -0.000085295    0.000600108   -0.003141828
     46        1           0.000541144   -0.001512576   -0.003364107
     47        1          -0.001309278   -0.003635198    0.000514346
     48        1          -0.002896160   -0.003002645    0.000490948
     49        1          -0.003012510   -0.003112544    0.000232231
     50        1           0.001021400    0.000988690   -0.001991477
     51        1           0.000295106   -0.000168523   -0.000253070
     52        1          -0.001064079   -0.000508466    0.000405375
     53        1           0.000200337   -0.004496829    0.003302327
     54        1           0.000473555   -0.003296318   -0.002225764
     55        1           0.000214444   -0.000787328   -0.000406830
     56        1          -0.000014490    0.000778686    0.001426921
     57        1           0.001801607    0.001418126    0.001974321
     58        1           0.001152639   -0.001622112    0.002601789
     59        1          -0.000674595    0.000876924   -0.000335615
     60        1           0.003961570   -0.001516313   -0.000055181
     61        1           0.004267626   -0.001131281    0.000077963
     62        6           0.003180337    0.002958481   -0.003017410
     63        1           0.002168566   -0.000958639    0.000848408
     64        1           0.001351868    0.000656396    0.001059433
     65        1           0.001794522    0.001223260   -0.000079851
 -------------------------------------------------------------------
 Cartesian Forces:  Max     0.034100171 RMS     0.006851787

 GradGradGradGradGradGradGradGradGradGradGradGradGradGradGradGradGradGrad
 Berny optimization.
 Internal  Forces:  Max     0.019627928 RMS     0.003430766
 Search for a local minimum.
 Step number   1 out of a maximum of  390
 All quantities printed in internal units (Hartrees-Bohrs-Radians)
 Mixed Optimization -- RFO/linear search
 Second derivative matrix not updated -- first step.
 ITU=  0
     Eigenvalues ---    0.00280   0.00291   0.00358   0.00383   0.00440
     Eigenvalues ---    0.00468   0.00476   0.00559   0.00588   0.00610
     Eigenvalues ---    0.00668   0.00693   0.00724   0.00732   0.00882
     Eigenvalues ---    0.01028   0.01167   0.01251   0.01302   0.01450
     Eigenvalues ---    0.01499   0.01695   0.01737   0.01818   0.02089
     Eigenvalues ---    0.02624   0.02823   0.02823   0.03102   0.03208
     Eigenvalues ---    0.03526   0.03708   0.03906   0.04081   0.04186
     Eigenvalues ---    0.04266   0.04322   0.04446   0.04504   0.04726
     Eigenvalues ---    0.04842   0.04894   0.05001   0.05144   0.05288
     Eigenvalues ---    0.05320   0.05341   0.05393   0.05444   0.05496
     Eigenvalues ---    0.05503   0.05524   0.05532   0.05573   0.05621
     Eigenvalues ---    0.05654   0.05703   0.05881   0.05930   0.06135
     Eigenvalues ---    0.06575   0.06781   0.07111   0.07150   0.07157
     Eigenvalues ---    0.07214   0.07273   0.07312   0.07436   0.08008
     Eigenvalues ---    0.08328   0.08381   0.08510   0.09406   0.09427
     Eigenvalues ---    0.09943   0.10231   0.11432   0.11912   0.12233
     Eigenvalues ---    0.12602   0.13320   0.14541   0.15315   0.15713
     Eigenvalues ---    0.15965   0.16000   0.16000   0.16000   0.16000
     Eigenvalues ---    0.16000   0.16000   0.16000   0.16000   0.16000
     Eigenvalues ---    0.16000   0.16000   0.16000   0.16000   0.16000
     Eigenvalues ---    0.16000   0.16000   0.16000   0.16000   0.16000
     Eigenvalues ---    0.16000   0.16341   0.16567   0.17662   0.18122
     Eigenvalues ---    0.19776   0.20950   0.21926   0.22349   0.22534
     Eigenvalues ---    0.23445   0.24714   0.24952   0.24994   0.24994
     Eigenvalues ---    0.24997   0.24998   0.25000   0.26107   0.26694
     Eigenvalues ---    0.27020   0.27187   0.27333   0.27695   0.28339
     Eigenvalues ---    0.28811   0.28883   0.29008   0.29346   0.29523
     Eigenvalues ---    0.29922   0.30124   0.30254   0.30787   0.31175
     Eigenvalues ---    0.31808   0.31884   0.32113   0.33141   0.33609
     Eigenvalues ---    0.33861   0.33884   0.33945   0.33998   0.34013
     Eigenvalues ---    0.34016   0.34024   0.34040   0.34062   0.34071
     Eigenvalues ---    0.34087   0.34154   0.34174   0.34202   0.34214
     Eigenvalues ---    0.34233   0.34243   0.34250   0.34260   0.34262
     Eigenvalues ---    0.34265   0.34268   0.34268   0.34276   0.34292
     Eigenvalues ---    0.34292   0.34299   0.34371   0.34475   0.34544
     Eigenvalues ---    0.35037   0.35185   0.35297   0.35429   0.36705
     Eigenvalues ---    0.37525   0.41041   0.44534   0.50243   0.53498
     Eigenvalues ---    0.54300   0.56213   0.90511   0.91163
 RFO step:  Lambda=-2.15364853D-02 EMin= 2.80101140D-03
 Linear search not attempted -- first point.
 Iteration  1 RMS(Cart)=  0.03972252 RMS(Int)=  0.00064601
 Iteration  2 RMS(Cart)=  0.00097920 RMS(Int)=  0.00024605
 Iteration  3 RMS(Cart)=  0.00000062 RMS(Int)=  0.00024605
 Variable       Old X    -DE/DX   Delta X   Delta X   Delta X     New X
                                 (Linear)    (Quad)   (Total)
    R1        2.53280  -0.00172   0.00000  -0.00370  -0.00379   2.52901
    R2        2.82108   0.00891   0.00000   0.02579   0.02565   2.84673
    R3        2.05614   0.00038   0.00000   0.00103   0.00103   2.05718
    R4        2.84408   0.00495   0.00000   0.01247   0.01251   2.85660
    R5        2.83937   0.00455   0.00000   0.01329   0.01329   2.85267
    R6        2.94393   0.00678   0.00000   0.01717   0.01714   2.96106
    R7        2.89741   0.01048   0.00000   0.03527   0.03519   2.93260
    R8        2.07995  -0.00193   0.00000  -0.00539  -0.00539   2.07456
    R9        2.92547   0.01246   0.00000   0.03940   0.03931   2.96478
   R10        2.91643   0.00790   0.00000   0.03074   0.03102   2.94745
   R11        2.75766  -0.00520   0.00000  -0.01551  -0.01555   2.74212
   R12        2.91794   0.00556   0.00000   0.02061   0.02057   2.93851
   R13        2.91109   0.00497   0.00000   0.00934   0.00897   2.92006
   R14        2.91107   0.00567   0.00000   0.02046   0.02045   2.93152
   R15        2.07527  -0.00147   0.00000  -0.00409  -0.00409   2.07118
   R16        2.07565   0.00231   0.00000   0.00642   0.00642   2.08207
   R17        2.81452   0.01146   0.00000   0.02670   0.02654   2.84106
   R18        2.86523   0.01461   0.00000   0.05225   0.05180   2.91703
   R19        2.68480   0.00253   0.00000   0.00653   0.00655   2.69135
   R20        2.52555   0.01368   0.00000   0.02420   0.02437   2.54992
   R21        2.62009  -0.01963   0.00000  -0.04528  -0.04501   2.57508
   R22        2.79808   0.00083   0.00000  -0.00142  -0.00128   2.79681
   R23        2.79722   0.01707   0.00000   0.04652   0.04652   2.84374
   R24        2.32401  -0.00763   0.00000  -0.00818  -0.00818   2.31583
   R25        2.32698  -0.01865   0.00000  -0.02013  -0.02013   2.30685
   R26        2.88119   0.00240   0.00000   0.00747   0.00747   2.88867
   R27        2.90249   0.00424   0.00000   0.01367   0.01367   2.91615
   R28        2.88926   0.00735   0.00000   0.02321   0.02321   2.91246
   R29        2.07226  -0.00100   0.00000  -0.00276  -0.00276   2.06950
   R30        2.07263   0.00001   0.00000   0.00003   0.00003   2.07266
   R31        2.07303   0.00082   0.00000   0.00227   0.00227   2.07530
   R32        2.87717   0.00916   0.00000   0.02839   0.02839   2.90556
   R33        2.06922   0.00057   0.00000   0.00158   0.00158   2.07079
   R34        2.06890   0.00007   0.00000   0.00019   0.00019   2.06909
   R35        2.07072  -0.00021   0.00000  -0.00057  -0.00057   2.07015
   R36        2.91091  -0.00021   0.00000   0.01136   0.01150   2.92241
   R37        2.90157   0.00563   0.00000   0.01874   0.01872   2.92029
[...]
     57          1           0        2.397743    4.557038   -0.087789
     58          1           0        1.127777    4.136352    1.070727
     59          1           0       -4.110278    1.575159    3.565663
     60          1           0       -3.600550    2.972050    2.600933
     61          1           0       -4.692333    1.782231    1.900401
     62          6           0        5.181594   -1.690407   -1.425898
     63          1           0        4.836217   -0.674873   -1.646960
     64          1           0        4.598177   -2.388129   -2.039815
     65          1           0        6.227935   -1.761036   -1.745078
 ---------------------------------------------------------------------
 Rotational constants (GHZ):      0.1928230      0.1303106      0.1063105

 **********************************************************************

            Population analysis using the SCF density.

 **********************************************************************

 Orbital symmetries:
       Occupied  (A) (A) (A) (A) (A) (A) (A) (A) (A) (A) (A) (A)
                 (A) (A) (A) (A) (A) (A) (A) (A) (A) (A) (A) (A)
                 (A) (A) (A) (A) (A) (A) (A) (A) (A) (A) (A) (A)
                 (A) (A) (A) (A) (A) (A) (A) (A) (A) (A) (A) (A)
                 (A) (A) (A) (A) (A) (A) (A) (A) (A) (A) (A) (A)
                 (A) (A) (A) (A) (A) (A) (A) (A) (A) (A) (A) (A)
                 (A) (A) (A) (A) (A) (A) (A) (A) (A) (A) (A) (A)
                 (A) (A) (A) (A) (A) (A) (A) (A) (A) (A) (A) (A)
                 (A) (A) (A) (A) (A) (A) (A) (A) (A) (A) (A) (A)
                 (A) (A) (A) (A) (A) (A) (A)
       Virtual   (A) (A) (A) (A) (A) (A) (A) (A) (A) (A) (A) (A)
                 (A) (A) (A) (A) (A) (A) (A) (A) (A) (A) (A) (A)
                 (A) (A) (A) (A) (A) (A) (A) (A) (A) (A) (A) (A)
                 (A) (A) (A) (A) (A) (A) (A) (A) (A) (A) (A) (A)
                 (A) (A) (A) (A) (A) (A) (A) (A) (A) (A) (A) (A)
                 (A) (A) (A) (A) (A) (A) (A) (A) (A) (A) (A) (A)
                 (A) (A) (A) (A) (A) (A) (A) (A) (A) (A) (A) (A)
                 (A) (A) (A) (A) (A) (A) (A) (A) (A) (A) (A) (A)
                 (A) (A) (A) (A) (A) (A) (A) (A) (A) (A) (A) (A)
                 (A) (A) (A) (A) (A) (A) (A) (A) (A) (A) (A) (A)
                 (A) (A) (A) (A) (A) (A) (A) (A) (A) (A) (A) (A)
                 (A) (A) (A) (A) (A) (A) (A) (A) (A) (A) (A) (A)
                 (A) (A) (A) (A) (A) (A) (A) (A) (A) (A) (A) (A)
                 (A) (A) (A) (A) (A) (A) (A) (A) (A) (A) (A) (A)
                 (A) (A) (A) (A) (A) (A) (A) (A) (A) (A) (A) (A)
                 (A) (A) (A) (A) (A) (A) (A) (A) (A) (A) (A) (A)
                 (A) (A) (A) (A) (A) (A) (A) (A) (A) (A) (A) (A)
                 (A) (A) (A) (A) (A) (A) (A) (A) (A) (A) (A) (A)
                 (A) (A) (A) (A) (A) (A) (A) (A) (A) (A) (A) (A)
                 (A) (A) (A) (A) (A) (A) (A) (A) (A) (A) (A) (A)
                 (A) (A) (A) (A) (A) (A) (A) (A) (A) (A) (A) (A)
                 (A) (A) (A) (A) (A) (A) (A) (A) (A) (A) (A) (A)
                 (A) (A) (A) (A) (A) (A) (A) (A) (A) (A) (A) (A)
                 (A) (A) (A) (A) (A) (A) (A) (A) (A) (A) (A) (A)
                 (A) (A) (A) (A) (A) (A) (A) (A) (A) (A) (A) (A)
                 (A) (A) (A) (A) (A) (A) (A) (A) (A) (A) (A) (A)
                 (A) (A) (A) (A) (A) (A) (A) (A) (A) (A) (A) (A)
                 (A) (A) (A) (A) (A) (A) (A) (A) (A) (A) (A) (A)
                 (A) (A) (A) (A) (A) (A) (A) (A) (A) (A) (A) (A)
                 (A) (A) (A) (A) (A) (A) (A) (A) (A) (A) (A) (A)
                 (A) (A) (A) (A) (A) (A) (A) (A) (A) (A) (A) (A)
                 (A) (A) (A) (A) (A) (A) (A) (A) (A) (A) (A) (A)
                 (A) (A) (A) (A) (A) (A) (A) (A) (A) (A) (A) (A)
                 (A) (A) (A) (A) (A) (A) (A) (A) (A) (A) (A) (A)
                 (A) (A) (A) (A) (A) (A) (A) (A) (A) (A)
 The electronic state is 1-A.
 Alpha  occ. eigenvalues --  -19.19999 -19.17297 -19.15274 -19.13222 -19.11370
 Alpha  occ. eigenvalues --  -10.27471 -10.27307 -10.26666 -10.26329 -10.26121
 Alpha  occ. eigenvalues --  -10.25675 -10.25054 -10.21591 -10.20716 -10.20632
 Alpha  occ. eigenvalues --  -10.20464 -10.20204 -10.20200 -10.20053 -10.19329
 Alpha  occ. eigenvalues --  -10.19089 -10.19026 -10.19016 -10.18960 -10.18792
 Alpha  occ. eigenvalues --  -10.18199 -10.17829 -10.16961 -10.16405 -10.16092
 Alpha  occ. eigenvalues --  -10.15455  -1.09650  -1.06868  -1.03291  -1.02550
 Alpha  occ. eigenvalues --   -1.01412  -0.87201  -0.83823  -0.82234  -0.81418
 Alpha  occ. eigenvalues --   -0.80175  -0.78573  -0.76798  -0.74101  -0.73232
 Alpha  occ. eigenvalues --   -0.72294  -0.71056  -0.70128  -0.69132  -0.68496
 Alpha  occ. eigenvalues --   -0.64980  -0.63874  -0.63241  -0.61553  -0.60966
 Alpha  occ. eigenvalues --   -0.59185  -0.58570  -0.56877  -0.54733  -0.53527
 Alpha  occ. eigenvalues --   -0.52871  -0.51802  -0.51245  -0.50033  -0.49504
 Alpha  occ. eigenvalues --   -0.48052  -0.47314  -0.47023  -0.46626  -0.46139
 Alpha  occ. eigenvalues --   -0.45228  -0.44264  -0.44186  -0.43517  -0.42582
 Alpha  occ. eigenvalues --   -0.42425  -0.42139  -0.41889  -0.41658  -0.41426
 Alpha  occ. eigenvalues --   -0.40831  -0.40669  -0.40347  -0.40100  -0.39923
 Alpha  occ. eigenvalues --   -0.39417  -0.39109  -0.38978  -0.38612  -0.38431
 Alpha  occ. eigenvalues --   -0.37675  -0.37153  -0.36929  -0.36594  -0.36307
 Alpha  occ. eigenvalues --   -0.35707  -0.35241  -0.34789  -0.34588  -0.34327
 Alpha  occ. eigenvalues --   -0.33870  -0.33647  -0.32956  -0.32518  -0.31915
 Alpha  occ. eigenvalues --   -0.31387  -0.30945  -0.30478  -0.28450  -0.27474
 Alpha  occ. eigenvalues --   -0.25219  -0.24652  -0.24249  -0.23446  -0.22016
 Alpha virt. eigenvalues --   -0.04922  -0.01111   0.00796   0.01823   0.05567
 Alpha virt. eigenvalues --    0.07114   0.08097   0.08642   0.09257   0.09913
 Alpha virt. eigenvalues --    0.10419   0.10786   0.11278   0.11581   0.12031
 Alpha virt. eigenvalues --    0.12604   0.12863   0.13563   0.13597   0.13840
 Alpha virt. eigenvalues --    0.14616   0.14827   0.15158   0.15412   0.15566
 Alpha virt. eigenvalues --    0.15989   0.16385   0.16463   0.16931   0.17498
 Alpha virt. eigenvalues --    0.17879   0.18077   0.18691   0.18990   0.19098
 Alpha virt. eigenvalues --    0.19373   0.19835   0.20081   0.20370   0.20688
 Alpha virt. eigenvalues --    0.21090   0.21210   0.21406   0.21978   0.22218
 Alpha virt. eigenvalues --    0.23194   0.23273   0.23808   0.24111   0.24577
 Alpha virt. eigenvalues --    0.25132   0.25591   0.26270   0.26548   0.26718
 Alpha virt. eigenvalues --    0.27326   0.27769   0.27967   0.28849   0.30122
 Alpha virt. eigenvalues --    0.30679   0.32074   0.32258   0.33584   0.34005
 Alpha virt. eigenvalues --    0.34579   0.36271   0.37873   0.38264   0.40128
 Alpha virt. eigenvalues --    0.40902   0.44170   0.45701   0.47875   0.48261
 Alpha virt. eigenvalues --    0.49285   0.50054   0.50232   0.50884   0.51457
 Alpha virt. eigenvalues --    0.52007   0.52181   0.52608   0.53074   0.53291
 Alpha virt. eigenvalues --    0.53785   0.54358   0.54712   0.55177   0.55283
 Alpha virt. eigenvalues --    0.56744   0.57070   0.57583   0.58337   0.59187
 Alpha virt. eigenvalues --    0.59483   0.60032   0.60603   0.61165   0.61686
 Alpha virt. eigenvalues --    0.62208   0.62569   0.63424   0.63591   0.64284
 Alpha virt. eigenvalues --    0.65021   0.65374   0.66472   0.66707   0.67317
 Alpha virt. eigenvalues --    0.67671   0.68060   0.68351   0.69830   0.70357
 Alpha virt. eigenvalues --    0.70664   0.70687   0.71344   0.72181   0.72298
 Alpha virt. eigenvalues --    0.73225   0.74874   0.75382   0.75722   0.75836
 Alpha virt. eigenvalues --    0.77062   0.77553   0.78487   0.78666   0.79556
 Alpha virt. eigenvalues --    0.79859   0.80444   0.80986   0.81355   0.82005
 Alpha virt. eigenvalues --    0.82589   0.82752   0.83689   0.84434   0.85411
 Alpha virt. eigenvalues --    0.85579   0.85692   0.86138   0.86819   0.87092
 Alpha virt. eigenvalues --    0.87961   0.88291   0.88467   0.88823   0.89165
 Alpha virt. eigenvalues --    0.89234   0.89621   0.89754   0.90065   0.90303
 Alpha virt. eigenvalues --    0.90987   0.91082   0.91769   0.92023   0.92397
 Alpha virt. eigenvalues --    0.93322   0.93698   0.93844   0.94450   0.94686
 Alpha virt. eigenvalues --    0.94953   0.95908   0.96016   0.96205   0.96390
 Alpha virt. eigenvalues --    0.97174   0.97743   0.98046   0.98929   0.99281
 Alpha virt. eigenvalues --    1.00255   1.01020   1.01610   1.02489   1.03958
 Alpha virt. eigenvalues --    1.05046   1.05469   1.05778   1.07266   1.07868
 Alpha virt. eigenvalues --    1.09684   1.10767   1.11205   1.11730   1.12806
 Alpha virt. eigenvalues --    1.13695   1.14323   1.14432   1.14745   1.16321
 Alpha virt. eigenvalues --    1.17883   1.18534   1.18947   1.20512   1.22044
 Alpha virt. eigenvalues --    1.22795   1.24759   1.25572   1.27004   1.28149
 Alpha virt. eigenvalues --    1.29399   1.30000   1.31692   1.32788   1.34510
 Alpha virt. eigenvalues --    1.35712   1.37104   1.38524   1.38853   1.40001
 Alpha virt. eigenvalues --    1.40535   1.43039   1.43785   1.45526   1.46569
 Alpha virt. eigenvalues --    1.48282   1.50308   1.50726   1.51483   1.52973
 Alpha virt. eigenvalues --    1.54148   1.54817   1.55812   1.56514   1.57216
 Alpha virt. eigenvalues --    1.59069   1.60414   1.61414   1.62535   1.63649
 Alpha virt. eigenvalues --    1.64536   1.65832   1.66533   1.67815   1.68395
 Alpha virt. eigenvalues --    1.70173   1.71459   1.72749   1.73661   1.74081
 Alpha virt. eigenvalues --    1.74531   1.75900   1.76449   1.77162   1.78363
 Alpha virt. eigenvalues --    1.78796   1.79302   1.80693   1.80855   1.81700
 Alpha virt. eigenvalues --    1.82134   1.83281   1.83611   1.83900   1.84368
 Alpha virt. eigenvalues --    1.85422   1.86357   1.87101   1.87287   1.87946
 Alpha virt. eigenvalues --    1.88807   1.89351   1.89973   1.90245   1.91326
 Alpha virt. eigenvalues --    1.91815   1.92172   1.93149   1.94137   1.94502
 Alpha virt. eigenvalues --    1.95244   1.96035   1.96383   1.97047   1.97226
 Alpha virt. eigenvalues --    1.98142   1.98588   1.98978   1.99523   2.00266
 Alpha virt. eigenvalues --    2.01772   2.02414   2.03084   2.04099   2.04891
 Alpha virt. eigenvalues --    2.05829   2.06394   2.07129   2.08019   2.08509
 Alpha virt. eigenvalues --    2.10160   2.11177   2.11793   2.12745   2.13671
 Alpha virt. eigenvalues --    2.14029   2.15763   2.16985   2.17550   2.18577
 Alpha virt. eigenvalues --    2.18901   2.19891   2.20403   2.20838   2.22495
 Alpha virt. eigenvalues --    2.24207   2.24364   2.24604   2.25500   2.26877
 Alpha virt. eigenvalues --    2.27692   2.28718   2.29789   2.29944   2.30905
 Alpha virt. eigenvalues --    2.31398   2.32857   2.33368   2.33784   2.35565
 Alpha virt. eigenvalues --    2.36694   2.37852   2.38392   2.39353   2.40166
 Alpha virt. eigenvalues --    2.40636   2.41816   2.42012   2.42574   2.43388
 Alpha virt. eigenvalues --    2.44190   2.45323   2.47070   2.47404   2.48222
 Alpha virt. eigenvalues --    2.49751   2.50003   2.51256   2.53862   2.55040
 Alpha virt. eigenvalues --    2.55803   2.56499   2.57826   2.58292   2.60347
 Alpha virt. eigenvalues --    2.61792   2.62744   2.63620   2.64995   2.66942
 Alpha virt. eigenvalues --    2.67013   2.67679   2.70006   2.71214   2.71889
 Alpha virt. eigenvalues --    2.72181   2.72721   2.74583   2.75966   2.77355
 Alpha virt. eigenvalues --    2.78545   2.79335   2.80023   2.81753   2.82931
 Alpha virt. eigenvalues --    2.84642   2.88193   2.92845   2.94492   2.95082
 Alpha virt. eigenvalues --    2.98192   2.98649   3.01275   3.02115   3.03461
 Alpha virt. eigenvalues --    3.04290   3.06197   3.11490   3.12985   3.21040
 Alpha virt. eigenvalues --    3.23627   3.29880   4.01550   4.09190   4.10162
 Alpha virt. eigenvalues --    4.12495   4.14959   4.15834   4.17342   4.18744
 Alpha virt. eigenvalues --    4.22901   4.25554   4.26348   4.26901   4.28904
 Alpha virt. eigenvalues --    4.31419   4.33001   4.36763   4.39015   4.43616
 Alpha virt. eigenvalues --    4.47692   4.48025   4.51069   4.56637   4.61187
 Alpha virt. eigenvalues --    4.65190   4.67175   4.70148   4.74203   4.76881
 Alpha virt. eigenvalues --    4.88787   4.94379   5.23836
          Condensed to atoms (all electrons):
 Mulliken atomic charges:
              1
     1  C   -0.195258
     2  C    0.199535
     3  C   -0.199842
     4  C    0.309161
     5  C   -0.021849
     6  C   -0.329632
     7  C    0.192272
     8  C    0.399661
     9  C   -0.070560
    10  C    0.381544
    11  C    0.409756
    12  O   -0.478688
    13  C   -0.149687
    14  C   -0.242592
    15  C   -0.458565
    16  O   -0.490355
    17  C   -0.151857
    18  C    0.290216
    19  O   -0.483884
    20  C   -0.310951
    21  O   -0.670692
    22  C   -0.332457
    23  C    0.118935
    24  O   -0.587769
    25  C    0.182582
    26  C   -0.518281
    27  C   -0.394352
    28  C   -0.468118
    29  C   -0.460363
    30  H    0.149839
    31  H    0.150536
    32  C   -0.521676
    33  H    0.125499
    34  H    0.161568
    35  H    0.164923
    36  H    0.162393
    37  H    0.149547
    38  H    0.120765
    39  H    0.146566
    40  H    0.148798
    41  H    0.150925
    42  H    0.152688
    43  H    0.162751
    44  H    0.430644
    45  H    0.147268
    46  H    0.191297
    47  H    0.134699
    48  H    0.168735
    49  H    0.153900
    50  H    0.161017
    51  H    0.146008
    52  H    0.136909
    53  H    0.195140
    54  H    0.164126
    55  H    0.144749
    56  H    0.149804
    57  H    0.171612
    58  H    0.161811
    59  H    0.158455
    60  H    0.156935
    61  H    0.156316
    62  C   -0.453858
    63  H    0.157473
    64  H    0.137402
    65  H    0.136526
 Sum of Mulliken atomic charges =   0.00000
 Mulliken charges with hydrogens summed into heavy atoms:
              1
     1  C   -0.069758
     2  C    0.199535
     3  C   -0.049306
     4  C    0.309161
     5  C   -0.021849
     6  C   -0.003142
     7  C    0.192272
     8  C    0.399661
     9  C   -0.070560
    10  C    0.381544
    11  C    0.409756
    12  O   -0.478688
    13  C    0.012705
    14  C    0.027720
    15  C   -0.012275
    16  O   -0.490355
    17  C   -0.002019
    18  C    0.290216
    19  O   -0.483884
    20  C    0.004489
    21  O   -0.240048
    22  C    0.006108
    23  C    0.253634
    24  O   -0.587769
    25  C    0.182582
    26  C   -0.034628
    27  C   -0.111435
    28  C    0.035897
    29  C    0.022864
    32  C   -0.049971
    62  C   -0.022458
 Sum of Mulliken charges with hydrogens summed into heavy atoms =   0.00000
 Electronic spatial extent (au):  <R**2>=          11859.6682
 Charge=              0.0000 electrons
 Dipole moment (field-independent basis, Debye):
    X=             -5.5970    Y=              2.6474    Z=              0.9641  Tot=              6.2662
 Quadrupole moment (field-independent basis, Debye-Ang):
   XX=           -190.2120   YY=           -174.1622   ZZ=           -182.4959
   XY=              0.9311   XZ=             -4.9405   YZ=             -2.1008
 Traceless Quadrupole moment (field-independent basis, Debye-Ang):
   XX=             -7.9220   YY=              8.1278   ZZ=             -0.2059
   XY=              0.9311   XZ=             -4.9405   YZ=             -2.1008
 Octapole moment (field-independent basis, Debye-Ang**2):
  XXX=            -60.2660  YYY=             65.6501  ZZZ=             -1.5232  XYY=            -14.1421
  XXY=            -29.0135  XXZ=             -5.8196  XZZ=             -9.0712  YZZ=             -3.3431
  YYZ=            -17.4955  XYZ=            -14.8304
 Hexadecapole moment (field-independent basis, Debye-Ang**3):
 XXXX=          -8521.4115 YYYY=          -4846.3410 ZZZZ=          -2560.1955 XXXY=              8.8691
 XXXZ=            -61.9522 YYYX=            101.7444 YYYZ=            -32.3567 ZZZX=             22.7774
 ZZZY=             -2.8670 XXYY=          -2117.5698 XXZZ=          -1813.5498 YYZZ=          -1240.4538
 XXYZ=              6.1929 YYXZ=             17.6118 ZZXY=             34.1439
 N-N= 3.489651415929D+03 E-N=-1.020556030893D+04  KE= 1.374463165283D+03
 1\1\GINC-B0600\FOpt\RB3LYP\6-31G(d)\C26H34O5\CAOFEI\24-Mar-2021\0\\# o
 pt rb3lyp/6-31g(d) geom=connectivity\\Title Card Required\\0,1\C,-0.14
 80837145,0.1268602769,-0.1208701459\C,1.171946684,-0.0521792916,0.0117
 453343\C,2.1012352651,1.1396099171,-0.0147488187\C,1.4962963166,2.4927
 021993,0.4841934457\C,-0.0621215435,2.5885800194,0.5505133686\C,-0.766
 3781659,1.488426526,-0.2990333384\C,2.1604003178,3.5747589675,-0.41822
 55855\C,1.2290371672,4.0854613047,-1.5139663655\C,-0.0772191291,4.4227
 421917,-1.2795456349\C,-0.6226759377,3.94637386,0.0111063643\C,-0.8581
 414014,5.2126919076,-2.2887664872\O,-0.4748612642,5.2597348793,-3.4502
 744016\C,-2.1350218178,5.9548809953,-1.8718564612\C,-2.2860713275,7.26
 47644784,-2.666522682\C,-3.3403546678,5.0192379959,-2.1078063279\O,-1.
 5754376881,4.4570852595,0.5866551022\C,3.2493532406,2.8907591964,-1.27
 08153013\C,3.2905328165,3.759430811,-2.5459553092\O,1.8878801284,4.246
 2631803,-2.6533749665\C,2.7011854733,1.4568487465,-1.4104074703\O,2.59
 57778133,4.6954354612,0.3235930976\C,-0.3774952461,2.4367736302,2.0609
 443947\C,0.9867615747,2.2198030605,2.7461528521\O,1.9459011738,2.75297
 80558,1.8219397026\C,1.1307121699,2.8440404481,4.1143770689\C,0.163481
 134,2.317387408,5.146511504\C,2.0523409316,3.7672874131,4.3970037073\C
 ,4.1891103947,4.9884979006,-2.3898978382\C,3.5771388499,3.0280431783,-
 3.8533084772\H,4.2116570844,2.8967854563,-0.7507781873\H,2.9449714767,
 0.9494615562,0.6625629111\C,1.8052031152,-1.4114445397,0.1567049776\H,
 -0.8132272266,-0.7353847451,-0.1299579454\H,-1.8264151323,1.4733269656
 ,-0.0225623723\H,-0.73858048,1.7710123096,-1.360977613\H,-2.0850086876
 ,6.1742624407,-0.8027093182\H,-2.27811292,7.0334174812,-3.7375086832\H
 ,-3.27394663,7.6859870687,-2.4357775745\H,-4.2706161898,5.5271457572,-
 1.8292347909\H,-3.2684402341,4.1080279599,-1.5056212722\H,-3.407169983
 7,4.7359096794,-3.1646827069\H,3.4673625614,0.7338862079,-1.7065288018
 \H,1.9090276381,1.4152209485,-2.1675274869\H,2.4950052978,4.4331437538
 ,1.2607947016\H,-1.0547483666,1.6003897223,2.2528367213\H,-0.864789101
 ,3.3479430083,2.4161170831\H,1.1751601506,1.1374174243,2.8418040533\H,
 -0.8771153366,2.5356181457,4.8734014901\H,0.2419461356,1.2257606835,5.
 2449554686\H,0.354927385,2.76047421,6.1278280714\H,2.7603175483,4.1226
 338931,3.6565386511\H,2.1316383945,4.192653853,5.3938619987\H,3.976988
 573,5.5125958673,-1.4552281202\H,4.0305717718,5.6739370029,-3.22839164
 81\H,5.2418327028,4.6834936777,-2.3878083634\H,4.5945628458,2.62204814
 06,-3.8378596208\H,3.4976037785,3.7227174406,-4.6949727384\H,2.8763815
 146,2.2072581916,-4.0245888717\H,1.0547737484,-2.2081961099,0.14759799
 9\H,2.5174022697,-1.6107790896,-0.6559203482\H,2.3736219014,-1.4873824
 847,1.0940810258\C,-1.2042431214,8.3054915746,-2.3579343524\H,-0.21146
 78049,7.9366217105,-2.6368512406\H,-1.1849002145,8.5567253981,-1.28994
 83209\H,-1.3813040122,9.2329394628,-2.914875106\\Version=EM64L-G09RevB
 .01\State=1-A\HF=-1387.3203872\RMSD=4.729e-09\RMSF=6.263e-06\Dipole=1.
 2126552,-2.0092292,0.7550941\Quadrupole=2.5444363,0.3741679,-2.9186042
 ,1.3698727,-6.2411008,1.9055359\PG=C01 [X(C26H34O5)]\\@


 SOME PHYSICISTS WOULD PREFER TO COME BACK TO THE IDEA OF AN OBJECTIVE
 REAL WORLD WHOSE SMALLEST PARTS EXIST OBJECTIVELY IN THE SAME SENSE AS
 STONES OR TREES EXIST INDEPENDENTLY OF WHETHER WE OBSERVE THEM.
 THIS, HOWEVER, IS IMPOSSIBLE.  -- WERNER HEISENBERG
 Job cpu time:  0 days  7 hours 38 minutes 25.7 seconds.
 File lengths (MBytes):  RWF=    186 Int=      0 D2E=      0 Chk=     20 Scr=      1
 Normal termination of Gaussian 09 at Wed Mar 24 15:51:35 2021.
