 Entering Gaussian System, Link 0=g09
 Initial command:
 /public/software/g09/g09/l1.exe /tmp/Gau-14386.inp -scrdir=/tmp/
 Entering Link 1 = /public/software/g09/g09/l1.exe PID=     14387.
  
 Copyright (c) 1988,1990,1992,1993,1995,1998,2003,2009,2010,
            Gaussian, Inc.  All Rights Reserved.
  
 This is part of the Gaussian(R) 09 program.  It is based on
 the Gaussian(R) 03 system (copyright 2003, Gaussian, Inc.),
 the Gaussian(R) 98 system (copyright 1998, Gaussian, Inc.),
 the Gaussian(R) 94 system (copyright 1995, Gaussian, Inc.),
 the Gaussian 92(TM) system (copyright 1992, Gaussian, Inc.),
 the Gaussian 90(TM) system (copyright 1990, Gaussian, Inc.),
 the Gaussian 88(TM) system (copyright 1988, Gaussian, Inc.),
 the Gaussian 86(TM) system (copyright 1986, Carnegie Mellon
 University), and the Gaussian 82(TM) system (copyright 1983,
 Carnegie Mellon University). Gaussian is a federally registered
 trademark of Gaussian, Inc.
  
 This software contains proprietary and confidential information,
 including trade secrets, belonging to Gaussian, Inc.
  
 This software is provided under written license and may be
 used, copied, transmitted, or stored only in accord with that
 written license.
  
 The following legend is applicable only to US Government
 contracts under FAR:
  
                    RESTRICTED RIGHTS LEGEND
  
 Use, reproduction and disclosure by the US Government is
 subject to restrictions as set forth in subparagraphs (a)
 and (c) of the Commercial Computer Software - Restricted
 Rights clause in FAR 52.227-19.
  
 Gaussian, Inc.
 340 Quinnipiac St., Bldg. 40, Wallingford CT 06492
  
  
 ---------------------------------------------------------------
 Warning -- This program may not be used in any manner that
 competes with the business of Gaussian, Inc. or will provide
 assistance to any competitor of Gaussian, Inc.  The licensee
 of this program is prohibited from giving any competitor of
 Gaussian, Inc. access to this program.  By using this program,
 the user acknowledges that Gaussian, Inc. is engaged in the
 business of creating and licensing software in the field of
 computational chemistry and represents and warrants to the
 licensee that it is not a competitor of Gaussian, Inc. and that
 it will not use this program in any manner prohibited above.
 ---------------------------------------------------------------
  

 Cite this work as:
 Gaussian 09, Revision B.01,
 M. J. Frisch, G. W. Trucks, H. B. Schlegel, G. E. Scuseria, 
 M. A. Robb, J. R. Cheeseman, G. Scalmani, V. Barone, B. Mennucci, 
 G. A. Petersson, H. Nakatsuji, M. Caricato, X. Li, H. P. Hratchian, 
 A. F. Izmaylov, J. Bloino, G. Zheng, J. L. Sonnenberg, M. Hada, 
 M. Ehara, K. Toyota, R. Fukuda, J. Hasegawa, M. Ishida, T. Nakajima, 
 Y. Honda, O. Kitao, H. Nakai, T. Vreven, J. A. Montgomery, Jr., 
 J. E. Peralta, F. Ogliaro, M. Bearpark, J. J. Heyd, E. Brothers, 
 K. N. Kudin, V. N. Staroverov, T. Keith, R. Kobayashi, J. Normand, 
 K. Raghavachari, A. Rendell, J. C. Burant, S. S. Iyengar, J. Tomasi, 
 M. Cossi, N. Rega, J. M. Millam, M. Klene, J. E. Knox, J. B. Cross, 
 V. Bakken, C. Adamo, J. Jaramillo, R. Gomperts, R. E. Stratmann, 
 O. Yazyev, A. J. Austin, R. Cammi, C. Pomelli, J. W. Ochterski, 
 R. L. Martin, K. Morokuma, V. G. Zakrzewski, G. A. Voth, 
 P. Salvador, J. J. Dannenberg, S. Dapprich, A. D. Daniels, 
 O. Farkas, J. B. Foresman, J. V. Ortiz, J. Cioslowski, 
 and D. J. Fox, Gaussian, Inc., Wallingford CT, 2010.
 
 ******************************************
 Gaussian 09:  EM64L-G09RevB.01 12-Aug-2010
                24-Mar-2021 
 ******************************************
 %mem=600MW
 %nprocshared=10
 Will use up to   10 processors via shared memory.
 ---------------------------------------
 # opt rb3lyp/6-31g(d) geom=connectivity
 ---------------------------------------
 1/14=-1,18=20,19=15,26=3,38=1,57=2/1,3;
 2/9=110,12=2,17=6,18=5,40=1/2;
 3/5=1,6=6,7=1,11=2,16=1,25=1,30=1,71=1,74=-5,116=1/1,2,3;
 4//1;
 5/5=2,38=5/2;
 6/7=2,8=2,9=2,10=2,28=1/1;
 7//1,2,3,16;
 1/14=-1,18=20,19=15/3(2);
 2/9=110/2;
 99//99;
 2/9=110/2;
 3/5=1,6=6,7=1,11=2,16=1,25=1,30=1,71=1,74=-5,116=1/1,2,3;
 4/5=5,16=3/1;
 5/5=2,38=5/2;
 7//1,2,3,16;
 1/14=-1,18=20,19=15/3(-5);
 2/9=110/2;
 6/7=2,8=2,9=2,10=2,19=2,28=1/1;
 99/9=1/99;
 -------------------
 Title Card Required
 -------------------
 Symbolic Z-matrix:
 Charge =  0 Multiplicity = 1
 C                     0.        0.        0. 
 C                     1.3413    0.        0. 
 C                     2.1359    1.2845    0. 
 C                     1.3376    2.583    -0.3134 
 C                    -0.1611    2.4632   -0.6382 
 C                    -0.8322    1.2401    0.0205 
 C                     2.1349    3.274    -1.4376 
 C                     1.762     2.8715   -2.8217 
 C                     0.5346    2.4654   -3.1587 
 C                    -0.5264    2.4644   -2.131 
 C                     0.2795    1.9941   -4.5368 
 O                     0.5448    0.822    -4.8171 
 C                    -0.3349    2.9425   -5.5696 
 C                    -1.7394    2.4355   -5.939 
 C                    -0.3375    4.4143   -5.1551 
 O                    -1.7058    2.478    -2.4902 
 C                     3.5463    2.7321   -1.3939 
 C                     4.0332    2.942    -2.8442 
 O                     2.8553    2.7978   -3.6797 
 C                     3.3115    1.266    -0.9948 
 O                     2.0797    4.6868   -1.3452 
 C                    -0.716     3.7523   -0.0273 
 C                     0.1354    3.9368    1.2193 
 O                     1.4403    3.4467    0.864 
 C                     0.1966    5.3583    1.7357 
 C                    -1.1321    6.0054    2.0274 
 C                     1.3393    6.0235    1.9809 
 C                     4.6138    4.3459   -3.0783 
 C                     5.0745    1.9124   -3.2966 
 H                     4.1845    3.2404   -0.6621 
 H                     2.5705    1.3797    1.0061 
 C                     2.1101   -1.2918    0.0923 
 H                    -0.5429   -0.9426    0.047 
 H                    -1.0899    1.4362    1.0684 
 H                    -1.786     1.0141   -0.4729 
 H                     0.3159    2.8628   -6.4513 
 H                    -1.7023    1.3564   -6.1343 
 H                    -2.4238    2.5689   -5.093 
 H                     0.6621    4.7422   -4.8508 
 H                    -0.642     5.0574   -5.9867 
 H                    -1.0226    4.5991   -4.3211 
 H                     3.057     0.6459   -1.863 
 H                     4.2133    0.8347   -0.5454 
 H                     2.151     4.893    -0.3922 
 H                    -1.7855    3.6954    0.2062 
 H                    -0.5844    4.5962   -0.718 
 H                    -0.2316    3.297     2.0309 
 H                    -1.0187    6.9853    2.5035 
 H                    -1.7015    6.1517    1.1043 
 H                    -1.7192    5.3768    2.7049 
 H                     2.314     5.5734    1.8241 
 H                     1.333     7.0381    2.3683 
 H                     4.9399    4.4589   -4.1191 
 H                     5.4734    4.5339   -2.4269 
 H                     3.8763    5.1368   -2.9189 
 H                     5.415     2.1285   -4.3163 
 H                     5.9474    1.9112   -2.636 
 H                     4.6613    0.9      -3.3398 
 H                     1.4506   -2.1533    0.2434 
 H                     2.6807   -1.4723   -0.8236 
 H                     2.8051   -1.2592    0.9378 
 C                    -2.3275    3.1165   -7.1667 
 H                    -1.6541    3.0294   -8.0252 
 H                    -3.2798    2.6475   -7.435 
 H                    -2.523     4.1769   -6.9837 
 

 GradGradGradGradGradGradGradGradGradGradGradGradGradGradGradGradGradGrad
 Berny optimization.
 Initialization pass.
                           ----------------------------
                           !    Initial Parameters    !
                           ! (Angstroms and Degrees)  !
 --------------------------                            --------------------------
 ! Name  Definition              Value          Derivative Info.                !
 --------------------------------------------------------------------------------
 ! R1    R(1,2)                  1.3413         estimate D2E/DX2                !
 ! R2    R(1,6)                  1.4936         estimate D2E/DX2                !
 ! R3    R(1,33)                 1.0888         estimate D2E/DX2                !
 ! R4    R(2,3)                  1.5104         estimate D2E/DX2                !
 ! R5    R(2,32)                 1.5061         estimate D2E/DX2                !
 ! R6    R(3,4)                  1.5562         estimate D2E/DX2                !
 ! R7    R(3,20)                 1.5401         estimate D2E/DX2                !
 ! R8    R(3,31)                 1.1001         estimate D2E/DX2                !
 ! R9    R(4,5)                  1.5382         estimate D2E/DX2                !
 ! R10   R(4,7)                  1.5418         estimate D2E/DX2                !
 ! R11   R(4,24)                 1.4638         estimate D2E/DX2                !
 ! R12   R(5,6)                  1.5428         estimate D2E/DX2                !
 ! R13   R(5,10)                 1.5368         estimate D2E/DX2                !
 ! R14   R(5,22)                 1.5307         estimate D2E/DX2                !
 ! R15   R(6,34)                 1.0968         estimate D2E/DX2                !
 ! R16   R(6,35)                 1.0974         estimate D2E/DX2                !
 ! R17   R(7,8)                  1.4889         estimate D2E/DX2                !
 ! R18   R(7,17)                 1.5125         estimate D2E/DX2                !
 ! R19   R(7,21)                 1.4169         estimate D2E/DX2                !
 ! R20   R(8,9)                  1.336          estimate D2E/DX2                !
 ! R21   R(8,19)                 1.3917         estimate D2E/DX2                !
 ! R22   R(9,10)                 1.4771         estimate D2E/DX2                !
 ! R23   R(9,11)                 1.4786         estimate D2E/DX2                !
 ! R24   R(10,16)                1.233          estimate D2E/DX2                !
 ! R25   R(11,12)                1.234          estimate D2E/DX2                !
 ! R26   R(11,13)                1.5309         estimate D2E/DX2                !
 ! R27   R(13,14)                1.5382         estimate D2E/DX2                !
 ! R28   R(13,15)                1.5291         estimate D2E/DX2                !
 ! R29   R(13,36)                1.0988         estimate D2E/DX2                !
 ! R30   R(14,37)                1.0973         estimate D2E/DX2                !
 ! R31   R(14,38)                1.0963         estimate D2E/DX2                !
 ! R32   R(14,62)                1.5221         estimate D2E/DX2                !
 ! R33   R(15,39)                1.0951         estimate D2E/DX2                !
 ! R34   R(15,40)                1.0945         estimate D2E/DX2                !
 ! R35   R(15,41)                1.095          estimate D2E/DX2                !
 ! R36   R(17,18)                1.5442         estimate D2E/DX2                !
 ! R37   R(17,20)                1.5375         estimate D2E/DX2                !
 ! R38   R(17,30)                1.096          estimate D2E/DX2                !
 ! R39   R(18,19)                1.4513         estimate D2E/DX2                !
 ! R40   R(18,28)                1.5372         estimate D2E/DX2                !
 ! R41   R(18,29)                1.5327         estimate D2E/DX2                !
 ! R42   R(20,42)                1.0968         estimate D2E/DX2                !
 ! R43   R(20,43)                1.096          estimate D2E/DX2                !
 ! R44   R(21,44)                0.9777         estimate D2E/DX2                !
 ! R45   R(22,23)                1.5208         estimate D2E/DX2                !
 ! R46   R(22,45)                1.0962         estimate D2E/DX2                !
 ! R47   R(22,46)                1.0984         estimate D2E/DX2                !
 ! R48   R(23,24)                1.4385         estimate D2E/DX2                !
 ! R49   R(23,25)                1.5136         estimate D2E/DX2                !
 ! R50   R(23,47)                1.0967         estimate D2E/DX2                !
 ! R51   R(25,26)                1.5064         estimate D2E/DX2                !
 ! R52   R(25,27)                1.3448         estimate D2E/DX2                !
 ! R53   R(26,48)                1.0953         estimate D2E/DX2                !
 ! R54   R(26,49)                1.0944         estimate D2E/DX2                !
 ! R55   R(26,50)                1.0949         estimate D2E/DX2                !
 ! R56   R(27,51)                1.085          estimate D2E/DX2                !
 ! R57   R(27,52)                1.0861         estimate D2E/DX2                !
 ! R58   R(28,53)                1.0965         estimate D2E/DX2                !
 ! R59   R(28,54)                1.0948         estimate D2E/DX2                !
 ! R60   R(28,55)                1.0931         estimate D2E/DX2                !
 ! R61   R(29,56)                1.0966         estimate D2E/DX2                !
 ! R62   R(29,57)                1.0947         estimate D2E/DX2                !
 ! R63   R(29,58)                1.0943         estimate D2E/DX2                !
 ! R64   R(32,59)                1.0954         estimate D2E/DX2                !
 ! R65   R(32,60)                1.0941         estimate D2E/DX2                !
 ! R66   R(32,61)                1.095          estimate D2E/DX2                !
 ! R67   R(62,63)                1.0946         estimate D2E/DX2                !
 ! R68   R(62,64)                1.0949         estimate D2E/DX2                !
 ! R69   R(62,65)                1.0937         estimate D2E/DX2                !
 ! A1    A(2,1,6)              123.8609         estimate D2E/DX2                !
 ! A2    A(2,1,33)             119.9095         estimate D2E/DX2                !
 ! A3    A(6,1,33)             116.1285         estimate D2E/DX2                !
 ! A4    A(1,2,3)              121.7412         estimate D2E/DX2                !
 ! A5    A(1,2,32)             120.6944         estimate D2E/DX2                !
 ! A6    A(3,2,32)             117.4442         estimate D2E/DX2                !
 ! A7    A(2,3,4)              116.0878         estimate D2E/DX2                !
 ! A8    A(2,3,20)             113.0385         estimate D2E/DX2                !
 ! A9    A(2,3,31)             106.3456         estimate D2E/DX2                !
 ! A10   A(4,3,20)             105.7544         estimate D2E/DX2                !
 ! A11   A(4,3,31)             108.3393         estimate D2E/DX2                !
 ! A12   A(20,3,31)            106.8712         estimate D2E/DX2                !
 ! A13   A(3,4,5)              118.5139         estimate D2E/DX2                !
 ! A14   A(3,4,7)              104.8059         estimate D2E/DX2                !
 ! A15   A(3,4,24)             107.1191         estimate D2E/DX2                !
 ! A16   A(5,4,7)              112.6317         estimate D2E/DX2                !
 ! A17   A(5,4,24)             106.5084         estimate D2E/DX2                !
 ! A18   A(7,4,24)             106.6046         estimate D2E/DX2                !
 ! A19   A(4,5,6)              113.2921         estimate D2E/DX2                !
 ! A20   A(4,5,10)             115.89           estimate D2E/DX2                !
 ! A21   A(4,5,22)             101.7331         estimate D2E/DX2                !
 ! A22   A(6,5,10)             108.1761         estimate D2E/DX2                !
 ! A23   A(6,5,22)             109.851          estimate D2E/DX2                !
 ! A24   A(10,5,22)            107.5083         estimate D2E/DX2                !
 ! A25   A(1,6,5)              114.2049         estimate D2E/DX2                !
 ! A26   A(1,6,34)             107.0062         estimate D2E/DX2                !
 ! A27   A(1,6,35)             107.8854         estimate D2E/DX2                !
 ! A28   A(5,6,34)             111.6156         estimate D2E/DX2                !
 ! A29   A(5,6,35)             110.4493         estimate D2E/DX2                !
 ! A30   A(34,6,35)            105.1993         estimate D2E/DX2                !
 ! A31   A(4,7,8)              115.288          estimate D2E/DX2                !
 ! A32   A(4,7,17)             107.5134         estimate D2E/DX2                !
 ! A33   A(4,7,21)             112.284          estimate D2E/DX2                !
 ! A34   A(8,7,17)              99.4228         estimate D2E/DX2                !
 ! A35   A(8,7,21)             108.6884         estimate D2E/DX2                !
 ! A36   A(17,7,21)            113.0615         estimate D2E/DX2                !
 ! A37   A(7,8,9)              123.1441         estimate D2E/DX2                !
 ! A38   A(7,8,19)             112.9966         estimate D2E/DX2                !
 ! A39   A(9,8,19)             123.3734         estimate D2E/DX2                !
 ! A40   A(8,9,10)             118.9859         estimate D2E/DX2                !
 ! A41   A(8,9,11)             119.3713         estimate D2E/DX2                !
 ! A42   A(10,9,11)            121.6213         estimate D2E/DX2                !
 ! A43   A(5,10,9)             120.3361         estimate D2E/DX2                !
 ! A44   A(5,10,16)            120.6877         estimate D2E/DX2                !
 ! A45   A(9,10,16)            118.9722         estimate D2E/DX2                !
 ! A46   A(9,11,12)            118.5132         estimate D2E/DX2                !
 ! A47   A(9,11,13)            120.0363         estimate D2E/DX2                !
 ! A48   A(12,11,13)           121.431          estimate D2E/DX2                !
 ! A49   A(11,13,14)           108.9212         estimate D2E/DX2                !
 ! A50   A(11,13,15)           114.4633         estimate D2E/DX2                !
 ! A51   A(11,13,36)           104.9938         estimate D2E/DX2                !
 ! A52   A(14,13,15)           112.3836         estimate D2E/DX2                !
 ! A53   A(14,13,36)           108.9169         estimate D2E/DX2                !
 ! A54   A(15,13,36)           106.7595         estimate D2E/DX2                !
 ! A55   A(13,14,37)           109.6345         estimate D2E/DX2                !
 ! A56   A(13,14,38)           110.1562         estimate D2E/DX2                !
 ! A57   A(13,14,62)           113.5164         estimate D2E/DX2                !
 ! A58   A(37,14,38)           106.1482         estimate D2E/DX2                !
 ! A59   A(37,14,62)           108.0291         estimate D2E/DX2                !
 ! A60   A(38,14,62)           109.0729         estimate D2E/DX2                !
 ! A61   A(13,15,39)           111.2216         estimate D2E/DX2                !
 ! A62   A(13,15,40)           111.1056         estimate D2E/DX2                !
 ! A63   A(13,15,41)           111.7139         estimate D2E/DX2                !
 ! A64   A(39,15,40)           106.8066         estimate D2E/DX2                !
 ! A65   A(39,15,41)           107.9936         estimate D2E/DX2                !
 ! A66   A(40,15,41)           107.7866         estimate D2E/DX2                !
 ! A67   A(7,17,18)            102.6151         estimate D2E/DX2                !
 ! A68   A(7,17,20)            101.9255         estimate D2E/DX2                !
 ! A69   A(7,17,30)            113.3603         estimate D2E/DX2                !
 ! A70   A(18,17,20)           114.9337         estimate D2E/DX2                !
 ! A71   A(18,17,30)           112.3623         estimate D2E/DX2                !
 ! A72   A(20,17,30)           110.9683         estimate D2E/DX2                !
 ! A73   A(17,18,19)           105.7398         estimate D2E/DX2                !
 ! A74   A(17,18,28)           112.7232         estimate D2E/DX2                !
 ! A75   A(17,18,29)           113.5869         estimate D2E/DX2                !
 ! A76   A(19,18,28)           108.0367         estimate D2E/DX2                !
 ! A77   A(19,18,29)           108.3452         estimate D2E/DX2                !
 ! A78   A(28,18,29)           108.1777         estimate D2E/DX2                !
 ! A79   A(8,19,18)            106.1054         estimate D2E/DX2                !
 ! A80   A(3,20,17)            105.83           estimate D2E/DX2                !
 ! A81   A(3,20,42)            109.935          estimate D2E/DX2                !
 ! A82   A(3,20,43)            111.5884         estimate D2E/DX2                !
 ! A83   A(17,20,42)           111.6581         estimate D2E/DX2                !
 ! A84   A(17,20,43)           110.8566         estimate D2E/DX2                !
 ! A85   A(42,20,43)           107.0376         estimate D2E/DX2                !
 ! A86   A(7,21,44)            105.7256         estimate D2E/DX2                !
 ! A87   A(5,22,23)            103.0831         estimate D2E/DX2                !
 ! A88   A(5,22,45)            113.2663         estimate D2E/DX2                !
 ! A89   A(5,22,46)            110.6488         estimate D2E/DX2                !
 ! A90   A(23,22,45)           112.2035         estimate D2E/DX2                !
 ! A91   A(23,22,46)           110.8024         estimate D2E/DX2                !
 ! A92   A(45,22,46)           106.9009         estimate D2E/DX2                !
 ! A93   A(22,23,24)           105.3104         estimate D2E/DX2                !
 ! A94   A(22,23,25)           114.5958         estimate D2E/DX2                !
 ! A95   A(22,23,47)           110.3947         estimate D2E/DX2                !
 ! A96   A(24,23,25)           111.5652         estimate D2E/DX2                !
 ! A97   A(24,23,47)           106.7139         estimate D2E/DX2                !
 ! A98   A(25,23,47)           107.995          estimate D2E/DX2                !
 ! A99   A(4,24,23)            109.6365         estimate D2E/DX2                !
 ! A100  A(23,25,26)           115.7101         estimate D2E/DX2                !
 ! A101  A(23,25,27)           124.1331         estimate D2E/DX2                !
 ! A102  A(26,25,27)           120.1128         estimate D2E/DX2                !
 ! A103  A(25,26,48)           112.1571         estimate D2E/DX2                !
 ! A104  A(25,26,49)           110.6708         estimate D2E/DX2                !
 ! A105  A(25,26,50)           110.2522         estimate D2E/DX2                !
 ! A106  A(48,26,49)           107.5116         estimate D2E/DX2                !
 ! A107  A(48,26,50)           107.4676         estimate D2E/DX2                !
 ! A108  A(49,26,50)           108.6437         estimate D2E/DX2                !
 ! A109  A(25,27,51)           122.1276         estimate D2E/DX2                !
 ! A110  A(25,27,52)           121.4815         estimate D2E/DX2                !
 ! A111  A(51,27,52)           116.3788         estimate D2E/DX2                !
 ! A112  A(18,28,53)           110.5487         estimate D2E/DX2                !
 ! A113  A(18,28,54)           111.2715         estimate D2E/DX2                !
 ! A114  A(18,28,55)           112.5678         estimate D2E/DX2                !
 ! A115  A(53,28,54)           108.2737         estimate D2E/DX2                !
 ! A116  A(53,28,55)           105.3373         estimate D2E/DX2                !
 ! A117  A(54,28,55)           108.5865         estimate D2E/DX2                !
 ! A118  A(18,29,56)           110.675          estimate D2E/DX2                !
 ! A119  A(18,29,57)           111.3686         estimate D2E/DX2                !
 ! A120  A(18,29,58)           112.1232         estimate D2E/DX2                !
 ! A121  A(56,29,57)           108.2869         estimate D2E/DX2                !
 ! A122  A(56,29,58)           105.2395         estimate D2E/DX2                !
 ! A123  A(57,29,58)           108.8984         estimate D2E/DX2                !
 ! A124  A(2,32,59)            112.0666         estimate D2E/DX2                !
 ! A125  A(2,32,60)            110.8804         estimate D2E/DX2                !
 ! A126  A(2,32,61)            110.2297         estimate D2E/DX2                !
 ! A127  A(59,32,60)           107.4403         estimate D2E/DX2                !
 ! A128  A(59,32,61)           107.3998         estimate D2E/DX2                !
 ! A129  A(60,32,61)           108.6807         estimate D2E/DX2                !
 ! A130  A(14,62,63)           111.058          estimate D2E/DX2                !
 ! A131  A(14,62,64)           110.0016         estimate D2E/DX2                !
 ! A132  A(14,62,65)           111.5855         estimate D2E/DX2                !
 ! A133  A(63,62,64)           107.9876         estimate D2E/DX2                !
 ! A134  A(63,62,65)           108.5639         estimate D2E/DX2                !
 ! A135  A(64,62,65)           107.508          estimate D2E/DX2                !
 ! D1    D(6,1,2,3)             -0.9471         estimate D2E/DX2                !
 ! D2    D(6,1,2,32)           174.9661         estimate D2E/DX2                !
 ! D3    D(33,1,2,3)          -177.1455         estimate D2E/DX2                !
 ! D4    D(33,1,2,32)           -1.2324         estimate D2E/DX2                !
 ! D5    D(2,1,6,5)             28.8427         estimate D2E/DX2                !
 ! D6    D(2,1,6,34)           -95.2019         estimate D2E/DX2                !
 ! D7    D(2,1,6,35)           152.0432         estimate D2E/DX2                !
 ! D8    D(33,1,6,5)          -154.8275         estimate D2E/DX2                !
 ! D9    D(33,1,6,34)           81.1279         estimate D2E/DX2                !
 ! D10   D(33,1,6,35)          -31.6269         estimate D2E/DX2                !
 ! D11   D(1,2,3,4)            -12.9582         estimate D2E/DX2                !
 ! D12   D(1,2,3,20)          -135.4203         estimate D2E/DX2                !
 ! D13   D(1,2,3,31)           107.6187         estimate D2E/DX2                !
 ! D14   D(32,2,3,4)           171.0016         estimate D2E/DX2                !
 ! D15   D(32,2,3,20)           48.5395         estimate D2E/DX2                !
 ! D16   D(32,2,3,31)          -68.4215         estimate D2E/DX2                !
 ! D17   D(1,2,32,59)           -5.0475         estimate D2E/DX2                !
 ! D18   D(1,2,32,60)          115.0037         estimate D2E/DX2                !
 ! D19   D(1,2,32,61)         -124.6037         estimate D2E/DX2                !
 ! D20   D(3,2,32,59)          171.0364         estimate D2E/DX2                !
 ! D21   D(3,2,32,60)          -68.9124         estimate D2E/DX2                !
 ! D22   D(3,2,32,61)           51.4802         estimate D2E/DX2                !
 ! D23   D(2,3,4,5)             -1.9019         estimate D2E/DX2                !
 ! D24   D(2,3,4,7)           -128.5262         estimate D2E/DX2                !
 ! D25   D(2,3,4,24)           118.4761         estimate D2E/DX2                !
 ! D26   D(20,3,4,5)           124.3177         estimate D2E/DX2                !
 ! D27   D(20,3,4,7)            -2.3065         estimate D2E/DX2                !
 ! D28   D(20,3,4,24)         -115.3043         estimate D2E/DX2                !
 ! D29   D(31,3,4,5)          -121.4021         estimate D2E/DX2                !
 ! D30   D(31,3,4,7)           111.9737         estimate D2E/DX2                !
 ! D31   D(31,3,4,24)           -1.0241         estimate D2E/DX2                !
 ! D32   D(2,3,20,17)          152.3919         estimate D2E/DX2                !
 ! D33   D(2,3,20,42)           31.668          estimate D2E/DX2                !
 ! D34   D(2,3,20,43)          -86.9325         estimate D2E/DX2                !
 ! D35   D(4,3,20,17)           24.3318         estimate D2E/DX2                !
 ! D36   D(4,3,20,42)          -96.392          estimate D2E/DX2                !
 ! D37   D(4,3,20,43)          145.0074         estimate D2E/DX2                !
 ! D38   D(31,3,20,17)         -90.9573         estimate D2E/DX2                !
 ! D39   D(31,3,20,42)         148.3188         estimate D2E/DX2                !
 ! D40   D(31,3,20,43)          29.7182         estimate D2E/DX2                !
 ! D41   D(3,4,5,6)             27.924          estimate D2E/DX2                !
 ! D42   D(3,4,5,10)           -97.9818         estimate D2E/DX2                !
 ! D43   D(3,4,5,22)           145.7643         estimate D2E/DX2                !
 ! D44   D(7,4,5,6)            150.7151         estimate D2E/DX2                !
 ! D45   D(7,4,5,10)            24.8094         estimate D2E/DX2                !
 ! D46   D(7,4,5,22)           -91.4445         estimate D2E/DX2                !
 ! D47   D(24,4,5,6)           -92.7669         estimate D2E/DX2                !
 ! D48   D(24,4,5,10)          141.3273         estimate D2E/DX2                !
 ! D49   D(24,4,5,22)           25.0734         estimate D2E/DX2                !
 ! D50   D(3,4,7,8)             88.7523         estimate D2E/DX2                !
 ! D51   D(3,4,7,17)           -21.0608         estimate D2E/DX2                !
 ! D52   D(3,4,7,21)          -146.0365         estimate D2E/DX2                !
 ! D53   D(5,4,7,8)            -41.4252         estimate D2E/DX2                !
 ! D54   D(5,4,7,17)          -151.2383         estimate D2E/DX2                !
 ! D55   D(5,4,7,21)            83.786          estimate D2E/DX2                !
 ! D56   D(24,4,7,8)          -157.8858         estimate D2E/DX2                !
 ! D57   D(24,4,7,17)           92.3011         estimate D2E/DX2                !
 ! D58   D(24,4,7,21)          -32.6746         estimate D2E/DX2                !
 ! D59   D(3,4,24,23)         -131.8888         estimate D2E/DX2                !
 ! D60   D(5,4,24,23)           -4.1356         estimate D2E/DX2                !
 ! D61   D(7,4,24,23)          116.3416         estimate D2E/DX2                !
 ! D62   D(4,5,6,1)            -40.4568         estimate D2E/DX2                !
 ! D63   D(4,5,6,34)            81.0798         estimate D2E/DX2                !
 ! D64   D(4,5,6,35)          -162.2583         estimate D2E/DX2                !
 ! D65   D(10,5,6,1)            89.4618         estimate D2E/DX2                !
 ! D66   D(10,5,6,34)         -149.0017         estimate D2E/DX2                !
 ! D67   D(10,5,6,35)          -32.3398         estimate D2E/DX2                !
 ! D68   D(22,5,6,1)          -153.4616         estimate D2E/DX2                !
 ! D69   D(22,5,6,34)          -31.925          estimate D2E/DX2                !
 ! D70   D(22,5,6,35)           84.7369         estimate D2E/DX2                !
 ! D71   D(4,5,10,9)             4.9696         estimate D2E/DX2                !
 ! D72   D(4,5,10,16)         -174.3033         estimate D2E/DX2                !
 ! D73   D(6,5,10,9)          -123.4905         estimate D2E/DX2                !
 ! D74   D(6,5,10,16)           57.2367         estimate D2E/DX2                !
 ! D75   D(22,5,10,9)          117.9322         estimate D2E/DX2                !
 ! D76   D(22,5,10,16)         -61.3406         estimate D2E/DX2                !
 ! D77   D(4,5,22,23)          -35.7462         estimate D2E/DX2                !
 ! D78   D(4,5,22,45)         -157.2285         estimate D2E/DX2                !
 ! D79   D(4,5,22,46)           82.7577         estimate D2E/DX2                !
 ! D80   D(6,5,22,23)           84.5422         estimate D2E/DX2                !
 ! D81   D(6,5,22,45)          -36.94           estimate D2E/DX2                !
 ! D82   D(6,5,22,46)         -156.9538         estimate D2E/DX2                !
 ! D83   D(10,5,22,23)        -157.9644         estimate D2E/DX2                !
 ! D84   D(10,5,22,45)          80.5534         estimate D2E/DX2                !
 ! D85   D(10,5,22,46)         -39.4605         estimate D2E/DX2                !
 ! D86   D(4,7,8,9)             29.1856         estimate D2E/DX2                !
 ! D87   D(4,7,8,19)          -143.0514         estimate D2E/DX2                !
 ! D88   D(17,7,8,9)           143.7541         estimate D2E/DX2                !
 ! D89   D(17,7,8,19)          -28.4829         estimate D2E/DX2                !
 ! D90   D(21,7,8,9)           -97.8661         estimate D2E/DX2                !
 ! D91   D(21,7,8,19)           89.8969         estimate D2E/DX2                !
 ! D92   D(4,7,17,18)          154.9515         estimate D2E/DX2                !
 ! D93   D(4,7,17,20)           35.6901         estimate D2E/DX2                !
 ! D94   D(4,7,17,30)          -83.6257         estimate D2E/DX2                !
 ! D95   D(8,7,17,18)           34.5254         estimate D2E/DX2                !
 ! D96   D(8,7,17,20)          -84.736          estimate D2E/DX2                !
 ! D97   D(8,7,17,30)          155.9482         estimate D2E/DX2                !
 ! D98   D(21,7,17,18)         -80.5411         estimate D2E/DX2                !
 ! D99   D(21,7,17,20)         160.1975         estimate D2E/DX2                !
 ! D100  D(21,7,17,30)          40.8817         estimate D2E/DX2                !
 ! D101  D(4,7,21,44)           40.0989         estimate D2E/DX2                !
 ! D102  D(8,7,21,44)          168.8516         estimate D2E/DX2                !
 ! D103  D(17,7,21,44)         -81.7672         estimate D2E/DX2                !
 ! D104  D(7,8,9,10)             2.6312         estimate D2E/DX2                !
 ! D105  D(7,8,9,11)          -175.7106         estimate D2E/DX2                !
 ! D106  D(19,8,9,10)          174.0684         estimate D2E/DX2                !
 ! D107  D(19,8,9,11)           -4.2734         estimate D2E/DX2                !
 ! D108  D(7,8,19,18)            8.9312         estimate D2E/DX2                !
 ! D109  D(9,8,19,18)         -163.2852         estimate D2E/DX2                !
 ! D110  D(8,9,10,5)           -20.3398         estimate D2E/DX2                !
 ! D111  D(8,9,10,16)          158.9455         estimate D2E/DX2                !
 ! D112  D(11,9,10,5)          157.9632         estimate D2E/DX2                !
 ! D113  D(11,9,10,16)         -22.7516         estimate D2E/DX2                !
 ! D114  D(8,9,11,12)           83.5792         estimate D2E/DX2                !
 ! D115  D(8,9,11,13)          -98.0052         estimate D2E/DX2                !
 ! D116  D(10,9,11,12)         -94.7174         estimate D2E/DX2                !
 ! D117  D(10,9,11,13)          83.6982         estimate D2E/DX2                !
 ! D118  D(9,11,13,14)        -113.3127         estimate D2E/DX2                !
 ! D119  D(9,11,13,15)          13.4295         estimate D2E/DX2                !
 ! D120  D(9,11,13,36)         130.1612         estimate D2E/DX2                !
 ! D121  D(12,11,13,14)         65.0557         estimate D2E/DX2                !
 ! D122  D(12,11,13,15)       -168.2021         estimate D2E/DX2                !
 ! D123  D(12,11,13,36)        -51.4704         estimate D2E/DX2                !
 ! D124  D(11,13,14,37)        -46.6408         estimate D2E/DX2                !
 ! D125  D(11,13,14,38)         69.8152         estimate D2E/DX2                !
 ! D126  D(11,13,14,62)       -167.5458         estimate D2E/DX2                !
 ! D127  D(15,13,14,37)       -174.5644         estimate D2E/DX2                !
 ! D128  D(15,13,14,38)        -58.1084         estimate D2E/DX2                !
 ! D129  D(15,13,14,62)         64.5306         estimate D2E/DX2                !
 ! D130  D(36,13,14,37)         67.3496         estimate D2E/DX2                !
 ! D131  D(36,13,14,38)       -176.1944         estimate D2E/DX2                !
 ! D132  D(36,13,14,62)        -53.5554         estimate D2E/DX2                !
 ! D133  D(11,13,15,39)         52.3589         estimate D2E/DX2                !
 ! D134  D(11,13,15,40)        171.1984         estimate D2E/DX2                !
 ! D135  D(11,13,15,41)        -68.3935         estimate D2E/DX2                !
 ! D136  D(14,13,15,39)        177.2937         estimate D2E/DX2                !
 ! D137  D(14,13,15,40)        -63.8667         estimate D2E/DX2                !
 ! D138  D(14,13,15,41)         56.5413         estimate D2E/DX2                !
 ! D139  D(36,13,15,39)        -63.3531         estimate D2E/DX2                !
 ! D140  D(36,13,15,40)         55.4865         estimate D2E/DX2                !
 ! D141  D(36,13,15,41)        175.8945         estimate D2E/DX2                !
 ! D142  D(13,14,62,63)         55.0237         estimate D2E/DX2                !
 ! D143  D(13,14,62,64)        174.5156         estimate D2E/DX2                !
 ! D144  D(13,14,62,65)        -66.255          estimate D2E/DX2                !
 ! D145  D(37,14,62,63)        -66.7799         estimate D2E/DX2                !
 ! D146  D(37,14,62,64)         52.712          estimate D2E/DX2                !
 ! D147  D(37,14,62,65)        171.9413         estimate D2E/DX2                !
 ! D148  D(38,14,62,63)        178.2586         estimate D2E/DX2                !
 ! D149  D(38,14,62,64)        -62.2495         estimate D2E/DX2                !
 ! D150  D(38,14,62,65)         56.9799         estimate D2E/DX2                !
 ! D151  D(7,17,18,19)         -31.8728         estimate D2E/DX2                !
 ! D152  D(7,17,18,28)          85.9532         estimate D2E/DX2                !
 ! D153  D(7,17,18,29)        -150.5495         estimate D2E/DX2                !
 ! D154  D(20,17,18,19)         77.8556         estimate D2E/DX2                !
 ! D155  D(20,17,18,28)       -164.3184         estimate D2E/DX2                !
 ! D156  D(20,17,18,29)        -40.8211         estimate D2E/DX2                !
 ! D157  D(30,17,18,19)       -153.9752         estimate D2E/DX2                !
 ! D158  D(30,17,18,28)        -36.1493         estimate D2E/DX2                !
 ! D159  D(30,17,18,29)         87.348          estimate D2E/DX2                !
 ! D160  D(7,17,20,3)          -36.7423         estimate D2E/DX2                !
 ! D161  D(7,17,20,42)          82.8553         estimate D2E/DX2                !
 ! D162  D(7,17,20,43)        -157.8924         estimate D2E/DX2                !
 ! D163  D(18,17,20,3)        -146.8843         estimate D2E/DX2                !
 ! D164  D(18,17,20,42)        -27.2866         estimate D2E/DX2                !
 ! D165  D(18,17,20,43)         91.9656         estimate D2E/DX2                !
 ! D166  D(30,17,20,3)          84.2509         estimate D2E/DX2                !
 ! D167  D(30,17,20,42)       -156.1515         estimate D2E/DX2                !
 ! D168  D(30,17,20,43)        -36.8993         estimate D2E/DX2                !
 ! D169  D(17,18,19,8)          14.6233         estimate D2E/DX2                !
 ! D170  D(28,18,19,8)        -106.2968         estimate D2E/DX2                !
 ! D171  D(29,18,19,8)         136.7262         estimate D2E/DX2                !
 ! D172  D(17,18,28,53)       -179.5173         estimate D2E/DX2                !
 ! D173  D(17,18,28,54)         60.1328         estimate D2E/DX2                !
 ! D174  D(17,18,28,55)        -62.0213         estimate D2E/DX2                !
 ! D175  D(19,18,28,53)        -63.0515         estimate D2E/DX2                !
 ! D176  D(19,18,28,54)        176.5986         estimate D2E/DX2                !
 ! D177  D(19,18,28,55)         54.4445         estimate D2E/DX2                !
 ! D178  D(29,18,28,53)         54.0337         estimate D2E/DX2                !
 ! D179  D(29,18,28,54)        -66.3162         estimate D2E/DX2                !
 ! D180  D(29,18,28,55)        171.5297         estimate D2E/DX2                !
 ! D181  D(17,18,29,56)       -177.7988         estimate D2E/DX2                !
 ! D182  D(17,18,29,57)        -57.2827         estimate D2E/DX2                !
 ! D183  D(17,18,29,58)         65.0275         estimate D2E/DX2                !
 ! D184  D(19,18,29,56)         65.0316         estimate D2E/DX2                !
 ! D185  D(19,18,29,57)       -174.4523         estimate D2E/DX2                !
 ! D186  D(19,18,29,58)        -52.1421         estimate D2E/DX2                !
 ! D187  D(28,18,29,56)        -51.8546         estimate D2E/DX2                !
 ! D188  D(28,18,29,57)         68.6616         estimate D2E/DX2                !
 ! D189  D(28,18,29,58)       -169.0283         estimate D2E/DX2                !
 ! D190  D(5,22,23,24)          34.5096         estimate D2E/DX2                !
 ! D191  D(5,22,23,25)         157.4952         estimate D2E/DX2                !
 ! D192  D(5,22,23,47)         -80.3187         estimate D2E/DX2                !
 ! D193  D(45,22,23,24)        156.709          estimate D2E/DX2                !
 ! D194  D(45,22,23,25)        -80.3055         estimate D2E/DX2                !
 ! D195  D(45,22,23,47)         41.8807         estimate D2E/DX2                !
 ! D196  D(46,22,23,24)        -83.8871         estimate D2E/DX2                !
 ! D197  D(46,22,23,25)         39.0984         estimate D2E/DX2                !
 ! D198  D(46,22,23,47)        161.2846         estimate D2E/DX2                !
 ! D199  D(22,23,24,4)         -19.008          estimate D2E/DX2                !
 ! D200  D(25,23,24,4)        -143.9125         estimate D2E/DX2                !
 ! D201  D(47,23,24,4)          98.3437         estimate D2E/DX2                !
 ! D202  D(22,23,25,26)         55.544          estimate D2E/DX2                !
 ! D203  D(22,23,25,27)       -126.8748         estimate D2E/DX2                !
 ! D204  D(24,23,25,26)        175.0931         estimate D2E/DX2                !
 ! D205  D(24,23,25,27)         -7.3257         estimate D2E/DX2                !
 ! D206  D(47,23,25,26)        -67.9369         estimate D2E/DX2                !
 ! D207  D(47,23,25,27)        109.6443         estimate D2E/DX2                !
 ! D208  D(23,25,26,48)        173.4599         estimate D2E/DX2                !
 ! D209  D(23,25,26,49)        -66.4815         estimate D2E/DX2                !
 ! D210  D(23,25,26,50)         53.7436         estimate D2E/DX2                !
 ! D211  D(27,25,26,48)         -4.2256         estimate D2E/DX2                !
 ! D212  D(27,25,26,49)        115.8329         estimate D2E/DX2                !
 ! D213  D(27,25,26,50)       -123.942          estimate D2E/DX2                !
 ! D214  D(23,25,27,51)         -0.2078         estimate D2E/DX2                !
 ! D215  D(23,25,27,52)       -178.8965         estimate D2E/DX2                !
 ! D216  D(26,25,27,51)        177.2727         estimate D2E/DX2                !
 ! D217  D(26,25,27,52)         -1.4159         estimate D2E/DX2                !
 --------------------------------------------------------------------------------
 Trust Radius=3.00D-01 FncErr=1.00D-07 GrdErr=1.00D-06
 Number of steps in this run=    390 maximum allowed number of steps=    390.
 GradGradGradGradGradGradGradGradGradGradGradGradGradGradGradGradGradGrad

 Stoichiometry    C26H34O5
 Framework group  C1[X(C26H34O5)]
 Deg. of freedom   189
 Full point group                 C1      NOp   1
 Largest Abelian subgroup         C1      NOp   1
 Largest concise Abelian subgroup C1      NOp   1
                         Standard orientation:                         
 ---------------------------------------------------------------------
 Center     Atomic      Atomic             Coordinates (Angstroms)
 Number     Number       Type             X           Y           Z
 ---------------------------------------------------------------------
      1          6           0       -1.177295    0.033340    3.253457
      2          6           0       -1.434713    1.243020    2.734325
      3          6           0       -1.768033    1.425826    1.272542
      4          6           0       -1.493225    0.203196    0.349904
      5          6           0       -0.873268   -1.060333    0.970465
      6          6           0       -1.212065   -1.234983    2.465439
      7          6           0       -0.651621    0.767711   -0.812000
      8          6           0        0.820931    0.761961   -0.592106
      9          6           0        1.440973   -0.136469    0.178197
     10          6           0        0.646571   -1.214178    0.802184
     11          6           0        2.894774   -0.008094    0.415561
     12          8           0        3.281102    0.751348    1.308180
     13          6           0        3.882299   -0.834505   -0.412367
     14          6           0        4.582002   -1.846901    0.510451
     15          6           0        3.273020   -1.497408   -1.648228
     16          8           0        1.219881   -2.241121    1.172181
     17          6           0       -0.888652    2.260662   -0.862281
     18          6           0        0.396978    2.783646   -1.539145
     19          8           0        1.454826    1.879825   -1.126389
     20          6           0       -1.024834    2.611111    0.628525
     21          8           0       -0.929655    0.119887   -2.041068
     22          6           0       -1.541588   -2.168582    0.153136
     23          6           0       -2.941734   -1.624468   -0.084484
     24          8           0       -2.778085   -0.202023   -0.222573
     25          6           0       -3.655148   -2.220950   -1.278773
     26          6           0       -3.774559   -3.722604   -1.285699
     27          6           0       -4.206247   -1.495756   -2.268097
     28          6           0        0.315293    2.751448   -3.073786
     29          6           0        0.781473    4.204021   -1.110491
     30          1           0       -1.793458    2.538662   -1.414767
     31          1           0       -2.842029    1.659524    1.226768
     32          6           0       -1.490057    2.462343    3.616656
     33          1           0       -0.986060   -0.070099    4.320309
     34          1           0       -2.207999   -1.672514    2.605582
     35          1           0       -0.517979   -1.943058    2.935682
     36          1           0        4.624981   -0.110430   -0.774894
     37          1           0        4.916477   -1.341943    1.425393
     38          1           0        3.872883   -2.619385    0.830348
     39          1           0        2.739466   -0.768068   -2.266854
     40          1           0        4.048630   -1.941186   -2.280167
     41          1           0        2.568455   -2.290468   -1.376728
     42          1           0       -0.045448    2.741713    1.104772
     43          1           0       -1.573675    3.550644    0.759958
     44          1           0       -1.897979   -0.013930   -2.056953
     45          1           0       -1.555112   -3.137033    0.666470
     46          1           0       -1.014791   -2.319126   -0.798900
     47          1           0       -3.569511   -1.785308    0.800250
     48          1           0       -4.396683   -4.083730   -2.111704
     49          1           0       -2.789304   -4.188030   -1.387606
     50          1           0       -4.231425   -4.070780   -0.353564
     51          1           0       -4.177653   -0.411150   -2.273297
     52          1           0       -4.724133   -1.968794   -3.097290
     53          1           0        1.247691    3.121371   -3.516691
     54          1           0       -0.508825    3.371719   -3.440763
     55          1           0        0.190675    1.738826   -3.466095
     56          1           0        1.676101    4.541596   -1.647252
     57          1           0       -0.027498    4.913831   -1.310700
     58          1           0        1.045250    4.257204   -0.049762
     59          1           0       -1.388970    2.207761    4.677279
     60          1           0       -0.684576    3.160014    3.368677
     61          1           0       -2.449231    2.975850    3.493150
     62          6           0        5.791422   -2.515472   -0.127662
     63          1           0        6.508275   -1.770676   -0.487490
     64          1           0        6.300796   -3.147762    0.606891
     65          1           0        5.501925   -3.154064   -0.967036
 ---------------------------------------------------------------------
 Rotational constants (GHZ):      0.1844386      0.1327895      0.1172929
 Standard basis: 6-31G(d) (6D, 7F)
 There are   533 symmetry adapted basis functions of A   symmetry.
 Integral buffers will be    131072 words long.
 Raffenetti 2 integral format.
 Two-electron integral symmetry is turned on.
   533 basis functions,  1004 primitive gaussians,   533 cartesian basis functions
   115 alpha electrons      115 beta electrons
       nuclear repulsion energy      3521.3996921630 Hartrees.
 NAtoms=   65 NActive=   65 NUniq=   65 SFac= 1.00D+00 NAtFMM=   50 NAOKFM=T Big=T
 One-electron integrals computed using PRISM.
 NBasis=   533 RedAO= T  NBF=   533
 NBsUse=   533 1.00D-06 NBFU=   533
 Harris functional with IExCor=  402 diagonalized for initial guess.
 ExpMin= 1.61D-01 ExpMax= 5.48D+03 ExpMxC= 8.25D+02 IAcc=1 IRadAn=         1 AccDes= 0.00D+00
 HarFok:  IExCor=  402 AccDes= 0.00D+00 IRadAn=         1 IDoV= 1
 ScaDFX=  1.000000  1.000000  1.000000  1.000000
 FoFCou: FMM=F IPFlag=           0 FMFlag=      100000 FMFlg1=        2001
         NFxFlg=           0 DoJE=T BraDBF=F KetDBF=T FulRan=T
         Omega=  0.000000  0.000000  1.000000  0.000000  0.000000 ICntrl=     500 IOpCl=  0
         NMat0=    1 NMatS0=    1 NMatT0=    0 NMatD0=    1 NMtDS0=    0 NMtDT0=    0
         I1Cent=           4 NGrid=           0.
 Petite list used in FoFCou.
 Initial guess orbital symmetries:
       Occupied  (A) (A) (A) (A) (A) (A) (A) (A) (A) (A) (A) (A)
                 (A) (A) (A) (A) (A) (A) (A) (A) (A) (A) (A) (A)
                 (A) (A) (A) (A) (A) (A) (A) (A) (A) (A) (A) (A)
                 (A) (A) (A) (A) (A) (A) (A) (A) (A) (A) (A) (A)
                 (A) (A) (A) (A) (A) (A) (A) (A) (A) (A) (A) (A)
                 (A) (A) (A) (A) (A) (A) (A) (A) (A) (A) (A) (A)
                 (A) (A) (A) (A) (A) (A) (A) (A) (A) (A) (A) (A)
                 (A) (A) (A) (A) (A) (A) (A) (A) (A) (A) (A) (A)
                 (A) (A) (A) (A) (A) (A) (A) (A) (A) (A) (A) (A)
                 (A) (A) (A) (A) (A) (A) (A)
       Virtual   (A) (A) (A) (A) (A) (A) (A) (A) (A) (A) (A) (A)
                 (A) (A) (A) (A) (A) (A) (A) (A) (A) (A) (A) (A)
                 (A) (A) (A) (A) (A) (A) (A) (A) (A) (A) (A) (A)
                 (A) (A) (A) (A) (A) (A) (A) (A) (A) (A) (A) (A)
                 (A) (A) (A) (A) (A) (A) (A) (A) (A) (A) (A) (A)
                 (A) (A) (A) (A) (A) (A) (A) (A) (A) (A) (A) (A)
                 (A) (A) (A) (A) (A) (A) (A) (A) (A) (A) (A) (A)
                 (A) (A) (A) (A) (A) (A) (A) (A) (A) (A) (A) (A)
                 (A) (A) (A) (A) (A) (A) (A) (A) (A) (A) (A) (A)
                 (A) (A) (A) (A) (A) (A) (A) (A) (A) (A) (A) (A)
                 (A) (A) (A) (A) (A) (A) (A) (A) (A) (A) (A) (A)
                 (A) (A) (A) (A) (A) (A) (A) (A) (A) (A) (A) (A)
                 (A) (A) (A) (A) (A) (A) (A) (A) (A) (A) (A) (A)
                 (A) (A) (A) (A) (A) (A) (A) (A) (A) (A) (A) (A)
                 (A) (A) (A) (A) (A) (A) (A) (A) (A) (A) (A) (A)
                 (A) (A) (A) (A) (A) (A) (A) (A) (A) (A) (A) (A)
                 (A) (A) (A) (A) (A) (A) (A) (A) (A) (A) (A) (A)
                 (A) (A) (A) (A) (A) (A) (A) (A) (A) (A) (A) (A)
                 (A) (A) (A) (A) (A) (A) (A) (A) (A) (A) (A) (A)
                 (A) (A) (A) (A) (A) (A) (A) (A) (A) (A) (A) (A)
                 (A) (A) (A) (A) (A) (A) (A) (A) (A) (A) (A) (A)
                 (A) (A) (A) (A) (A) (A) (A) (A) (A) (A) (A) (A)
                 (A) (A) (A) (A) (A) (A) (A) (A) (A) (A) (A) (A)
                 (A) (A) (A) (A) (A) (A) (A) (A) (A) (A) (A) (A)
                 (A) (A) (A) (A) (A) (A) (A) (A) (A) (A) (A) (A)
                 (A) (A) (A) (A) (A) (A) (A) (A) (A) (A) (A) (A)
                 (A) (A) (A) (A) (A) (A) (A) (A) (A) (A) (A) (A)
                 (A) (A) (A) (A) (A) (A) (A) (A) (A) (A) (A) (A)
                 (A) (A) (A) (A) (A) (A) (A) (A) (A) (A) (A) (A)
                 (A) (A) (A) (A) (A) (A) (A) (A) (A) (A) (A) (A)
                 (A) (A) (A) (A) (A) (A) (A) (A) (A) (A) (A) (A)
                 (A) (A) (A) (A) (A) (A) (A) (A) (A) (A) (A) (A)
                 (A) (A) (A) (A) (A) (A) (A) (A) (A) (A) (A) (A)
                 (A) (A) (A) (A) (A) (A) (A) (A) (A) (A) (A) (A)
                 (A) (A) (A) (A) (A) (A) (A) (A) (A) (A)
 The electronic state of the initial guess is 1-A.
 Requested convergence on RMS density matrix=1.00D-08 within 128 cycles.
 Requested convergence on MAX density matrix=1.00D-06.
 Requested convergence on             energy=1.00D-06.
 No special actions if energy rises.
 Integral accuracy reduced to 1.0D-05 until final iterations.
 Initial convergence to 1.0D-05 achieved.  Increase integral accuracy.
 SCF Done:  E(RB3LYP) =  -1387.30206040     A.U. after   16 cycles
             Convg  =    0.4311D-08             -V/T =  2.0091

 **********************************************************************

            Population analysis using the SCF density.

 **********************************************************************

 Orbital symmetries:
       Occupied  (A) (A) (A) (A) (A) (A) (A) (A) (A) (A) (A) (A)
                 (A) (A) (A) (A) (A) (A) (A) (A) (A) (A) (A) (A)
                 (A) (A) (A) (A) (A) (A) (A) (A) (A) (A) (A) (A)
                 (A) (A) (A) (A) (A) (A) (A) (A) (A) (A) (A) (A)
                 (A) (A) (A) (A) (A) (A) (A) (A) (A) (A) (A) (A)
                 (A) (A) (A) (A) (A) (A) (A) (A) (A) (A) (A) (A)
                 (A) (A) (A) (A) (A) (A) (A) (A) (A) (A) (A) (A)
                 (A) (A) (A) (A) (A) (A) (A) (A) (A) (A) (A) (A)
                 (A) (A) (A) (A) (A) (A) (A) (A) (A) (A) (A) (A)
                 (A) (A) (A) (A) (A) (A) (A)
       Virtual   (A) (A) (A) (A) (A) (A) (A) (A) (A) (A) (A) (A)
                 (A) (A) (A) (A) (A) (A) (A) (A) (A) (A) (A) (A)
                 (A) (A) (A) (A) (A) (A) (A) (A) (A) (A) (A) (A)
                 (A) (A) (A) (A) (A) (A) (A) (A) (A) (A) (A) (A)
                 (A) (A) (A) (A) (A) (A) (A) (A) (A) (A) (A) (A)
                 (A) (A) (A) (A) (A) (A) (A) (A) (A) (A) (A) (A)
                 (A) (A) (A) (A) (A) (A) (A) (A) (A) (A) (A) (A)
                 (A) (A) (A) (A) (A) (A) (A) (A) (A) (A) (A) (A)
                 (A) (A) (A) (A) (A) (A) (A) (A) (A) (A) (A) (A)
                 (A) (A) (A) (A) (A) (A) (A) (A) (A) (A) (A) (A)
                 (A) (A) (A) (A) (A) (A) (A) (A) (A) (A) (A) (A)
                 (A) (A) (A) (A) (A) (A) (A) (A) (A) (A) (A) (A)
                 (A) (A) (A) (A) (A) (A) (A) (A) (A) (A) (A) (A)
                 (A) (A) (A) (A) (A) (A) (A) (A) (A) (A) (A) (A)
                 (A) (A) (A) (A) (A) (A) (A) (A) (A) (A) (A) (A)
                 (A) (A) (A) (A) (A) (A) (A) (A) (A) (A) (A) (A)
                 (A) (A) (A) (A) (A) (A) (A) (A) (A) (A) (A) (A)
                 (A) (A) (A) (A) (A) (A) (A) (A) (A) (A) (A) (A)
                 (A) (A) (A) (A) (A) (A) (A) (A) (A) (A) (A) (A)
                 (A) (A) (A) (A) (A) (A) (A) (A) (A) (A) (A) (A)
                 (A) (A) (A) (A) (A) (A) (A) (A) (A) (A) (A) (A)
                 (A) (A) (A) (A) (A) (A) (A) (A) (A) (A) (A) (A)
                 (A) (A) (A) (A) (A) (A) (A) (A) (A) (A) (A) (A)
                 (A) (A) (A) (A) (A) (A) (A) (A) (A) (A) (A) (A)
                 (A) (A) (A) (A) (A) (A) (A) (A) (A) (A) (A) (A)
                 (A) (A) (A) (A) (A) (A) (A) (A) (A) (A) (A) (A)
                 (A) (A) (A) (A) (A) (A) (A) (A) (A) (A) (A) (A)
                 (A) (A) (A) (A) (A) (A) (A) (A) (A) (A) (A) (A)
                 (A) (A) (A) (A) (A) (A) (A) (A) (A) (A) (A) (A)
                 (A) (A) (A) (A) (A) (A) (A) (A) (A) (A) (A) (A)
                 (A) (A) (A) (A) (A) (A) (A) (A) (A) (A) (A) (A)
                 (A) (A) (A) (A) (A) (A) (A) (A) (A) (A) (A) (A)
                 (A) (A) (A) (A) (A) (A) (A) (A) (A) (A) (A) (A)
                 (A) (A) (A) (A) (A) (A) (A) (A) (A) (A) (A) (A)
                 (A) (A) (A) (A) (A) (A) (A) (A) (A) (A)
 The electronic state is 1-A.
 Alpha  occ. eigenvalues --  -19.19368 -19.16758 -19.15152 -19.13607 -19.13067
 Alpha  occ. eigenvalues --  -10.28066 -10.26902 -10.26656 -10.25907 -10.25897
 Alpha  occ. eigenvalues --  -10.25336 -10.25207 -10.21728 -10.20745 -10.20126
 Alpha  occ. eigenvalues --  -10.19952 -10.19742 -10.19388 -10.19281 -10.19239
 Alpha  occ. eigenvalues --  -10.19211 -10.19136 -10.18465 -10.18379 -10.18317
 Alpha  occ. eigenvalues --  -10.18254 -10.17979 -10.17544 -10.16835 -10.16593
 Alpha  occ. eigenvalues --  -10.16344  -1.08249  -1.05874  -1.03419  -1.02222
 Alpha  occ. eigenvalues --   -1.02036  -0.87297  -0.83969  -0.82661  -0.81752
 Alpha  occ. eigenvalues --   -0.80371  -0.79779  -0.76862  -0.74442  -0.73621
 Alpha  occ. eigenvalues --   -0.72292  -0.71331  -0.69345  -0.69271  -0.68030
 Alpha  occ. eigenvalues --   -0.65164  -0.64352  -0.63517  -0.62319  -0.60809
 Alpha  occ. eigenvalues --   -0.59330  -0.58308  -0.57312  -0.55469  -0.53851
 Alpha  occ. eigenvalues --   -0.53270  -0.52221  -0.50921  -0.50544  -0.49048
 Alpha  occ. eigenvalues --   -0.47969  -0.47258  -0.46556  -0.45970  -0.45740
 Alpha  occ. eigenvalues --   -0.45048  -0.44881  -0.44379  -0.43833  -0.43286
 Alpha  occ. eigenvalues --   -0.42996  -0.42688  -0.42171  -0.41937  -0.41670
 Alpha  occ. eigenvalues --   -0.41400  -0.40891  -0.40263  -0.39785  -0.39030
 Alpha  occ. eigenvalues --   -0.38691  -0.38590  -0.38471  -0.38208  -0.38050
 Alpha  occ. eigenvalues --   -0.37625  -0.37173  -0.37019  -0.36877  -0.36572
 Alpha  occ. eigenvalues --   -0.36073  -0.35866  -0.34642  -0.34432  -0.34372
 Alpha  occ. eigenvalues --   -0.34040  -0.33578  -0.33346  -0.32447  -0.32042
 Alpha  occ. eigenvalues --   -0.31378  -0.31319  -0.30930  -0.28037  -0.26547
 Alpha  occ. eigenvalues --   -0.25684  -0.25178  -0.24490  -0.23347  -0.23096
 Alpha virt. eigenvalues --   -0.05074  -0.01790   0.01082   0.02301   0.03641
 Alpha virt. eigenvalues --    0.07221   0.07993   0.09015   0.09215   0.10168
 Alpha virt. eigenvalues --    0.10334   0.10928   0.11574   0.11897   0.12548
 Alpha virt. eigenvalues --    0.12900   0.13145   0.13738   0.13860   0.14300
 Alpha virt. eigenvalues --    0.14642   0.15003   0.15120   0.15285   0.15550
 Alpha virt. eigenvalues --    0.15892   0.16037   0.16582   0.17093   0.17463
 Alpha virt. eigenvalues --    0.17890   0.18077   0.18270   0.18590   0.18855
 Alpha virt. eigenvalues --    0.19093   0.19614   0.19809   0.20041   0.20632
 Alpha virt. eigenvalues --    0.20775   0.21072   0.21562   0.22084   0.22771
 Alpha virt. eigenvalues --    0.22924   0.23795   0.24217   0.24289   0.24658
 Alpha virt. eigenvalues --    0.25367   0.25738   0.26190   0.26455   0.26798
 Alpha virt. eigenvalues --    0.27334   0.27989   0.28410   0.28919   0.30000
 Alpha virt. eigenvalues --    0.30977   0.32024   0.32544   0.33522   0.34567
 Alpha virt. eigenvalues --    0.35216   0.35871   0.36884   0.38542   0.40489
 Alpha virt. eigenvalues --    0.42298   0.45369   0.45668   0.48335   0.48433
 Alpha virt. eigenvalues --    0.50108   0.50802   0.51551   0.51727   0.52189
 Alpha virt. eigenvalues --    0.52507   0.52790   0.53195   0.53620   0.53905
 Alpha virt. eigenvalues --    0.54722   0.54920   0.55373   0.55733   0.56264
 Alpha virt. eigenvalues --    0.57225   0.57458   0.57646   0.58566   0.58889
 Alpha virt. eigenvalues --    0.59563   0.60953   0.61423   0.61746   0.61967
 Alpha virt. eigenvalues --    0.62218   0.62424   0.63609   0.63941   0.64531
 Alpha virt. eigenvalues --    0.65175   0.66241   0.66631   0.66799   0.67436
 Alpha virt. eigenvalues --    0.68108   0.68680   0.68871   0.69208   0.69602
 Alpha virt. eigenvalues --    0.70395   0.71009   0.71536   0.72435   0.73542
 Alpha virt. eigenvalues --    0.73826   0.74677   0.75412   0.75830   0.76121
 Alpha virt. eigenvalues --    0.76953   0.77333   0.78503   0.79366   0.80224
 Alpha virt. eigenvalues --    0.80797   0.81050   0.81711   0.81763   0.82402
 Alpha virt. eigenvalues --    0.82562   0.83239   0.84219   0.84338   0.84881
 Alpha virt. eigenvalues --    0.85335   0.85713   0.85967   0.86691   0.87239
 Alpha virt. eigenvalues --    0.87565   0.87851   0.87971   0.88654   0.88901
 Alpha virt. eigenvalues --    0.89457   0.89774   0.90249   0.90480   0.90810
 Alpha virt. eigenvalues --    0.90959   0.91152   0.91568   0.91973   0.92181
 Alpha virt. eigenvalues --    0.92711   0.93025   0.93348   0.94307   0.94734
 Alpha virt. eigenvalues --    0.95528   0.95918   0.96079   0.96146   0.96997
 Alpha virt. eigenvalues --    0.97556   0.98394   0.98736   0.99245   0.99914
 Alpha virt. eigenvalues --    1.00236   1.01743   1.02308   1.03381   1.04177
 Alpha virt. eigenvalues --    1.04875   1.06048   1.06150   1.07403   1.07753
 Alpha virt. eigenvalues --    1.09048   1.09576   1.10725   1.11827   1.12354
 Alpha virt. eigenvalues --    1.12706   1.13051   1.14561   1.15730   1.17131
 Alpha virt. eigenvalues --    1.17569   1.18427   1.19215   1.20297   1.21383
 Alpha virt. eigenvalues --    1.21816   1.23992   1.24515   1.25188   1.25951
 Alpha virt. eigenvalues --    1.28622   1.29726   1.30923   1.32208   1.34099
 Alpha virt. eigenvalues --    1.34532   1.35686   1.38194   1.39298   1.40190
 Alpha virt. eigenvalues --    1.40720   1.42272   1.43082   1.43447   1.46117
 Alpha virt. eigenvalues --    1.46750   1.49059   1.49597   1.50996   1.52357
 Alpha virt. eigenvalues --    1.54197   1.55017   1.56105   1.56693   1.58416
 Alpha virt. eigenvalues --    1.60533   1.61017   1.62151   1.62874   1.64173
 Alpha virt. eigenvalues --    1.65316   1.66280   1.67498   1.69317   1.70013
 Alpha virt. eigenvalues --    1.70619   1.72156   1.73251   1.74078   1.74428
 Alpha virt. eigenvalues --    1.75186   1.75732   1.76554   1.77291   1.77921
 Alpha virt. eigenvalues --    1.78835   1.79704   1.80399   1.82063   1.82350
 Alpha virt. eigenvalues --    1.82885   1.83191   1.84166   1.85135   1.86025
 Alpha virt. eigenvalues --    1.86893   1.87193   1.87698   1.88528   1.88564
 Alpha virt. eigenvalues --    1.89178   1.89849   1.90737   1.91263   1.91426
 Alpha virt. eigenvalues --    1.92209   1.93065   1.93734   1.94824   1.95787
 Alpha virt. eigenvalues --    1.96064   1.96405   1.97265   1.97955   1.98586
 Alpha virt. eigenvalues --    1.99436   1.99713   2.00384   2.01510   2.02012
 Alpha virt. eigenvalues --    2.02573   2.02923   2.03735   2.04730   2.05541
 Alpha virt. eigenvalues --    2.06846   2.07740   2.07813   2.09166   2.09830
 Alpha virt. eigenvalues --    2.10484   2.10818   2.12063   2.13247   2.13809
 Alpha virt. eigenvalues --    2.14327   2.15115   2.16160   2.17061   2.17327
 Alpha virt. eigenvalues --    2.20036   2.20599   2.21548   2.22455   2.23092
 Alpha virt. eigenvalues --    2.23580   2.24301   2.26139   2.26532   2.27063
 Alpha virt. eigenvalues --    2.28415   2.29551   2.29993   2.31783   2.32186
 Alpha virt. eigenvalues --    2.32485   2.33659   2.34327   2.34493   2.35804
 Alpha virt. eigenvalues --    2.35945   2.36832   2.37379   2.37742   2.38830
 Alpha virt. eigenvalues --    2.39565   2.41331   2.41490   2.42460   2.43087
 Alpha virt. eigenvalues --    2.44521   2.45397   2.45891   2.48247   2.49640
 Alpha virt. eigenvalues --    2.50375   2.50771   2.52994   2.53532   2.54883
 Alpha virt. eigenvalues --    2.56821   2.58009   2.58019   2.59830   2.60734
 Alpha virt. eigenvalues --    2.61183   2.63062   2.64199   2.64538   2.66151
 Alpha virt. eigenvalues --    2.67151   2.67959   2.68663   2.69834   2.70754
 Alpha virt. eigenvalues --    2.72041   2.72401   2.74400   2.76522   2.79000
 Alpha virt. eigenvalues --    2.80441   2.80920   2.81384   2.83905   2.84527
 Alpha virt. eigenvalues --    2.86416   2.92123   2.92413   2.95138   2.96847
 Alpha virt. eigenvalues --    2.97892   2.99798   3.00206   3.02143   3.03903
 Alpha virt. eigenvalues --    3.06589   3.07619   3.12870   3.18412   3.20474
 Alpha virt. eigenvalues --    3.22000   3.29565   4.01579   4.08810   4.10945
 Alpha virt. eigenvalues --    4.12574   4.14008   4.16756   4.18617   4.19768
 Alpha virt. eigenvalues --    4.23013   4.25734   4.27608   4.30323   4.31986
 Alpha virt. eigenvalues --    4.34286   4.36262   4.38332   4.39613   4.42346
 Alpha virt. eigenvalues --    4.46977   4.48624   4.52495   4.55392   4.60241
 Alpha virt. eigenvalues --    4.61613   4.65355   4.71919   4.75882   4.82546
 Alpha virt. eigenvalues --    4.91907   5.03732   5.19136
          Condensed to atoms (all electrons):
 Mulliken atomic charges:
              1
     1  C   -0.191867
     2  C    0.192532
     3  C   -0.187558
     4  C    0.320877
     5  C   -0.042366
     6  C   -0.333166
     7  C    0.208106
     8  C    0.401565
     9  C   -0.089702
    10  C    0.428025
    11  C    0.409461
    12  O   -0.454388
    13  C   -0.134294
    14  C   -0.261186
    15  C   -0.477811
    16  O   -0.509181
    17  C   -0.162028
    18  C    0.312455
    19  O   -0.538118
    20  C   -0.321618
    21  O   -0.663705
    22  C   -0.323025
    23  C    0.109862
    24  O   -0.589703
    25  C    0.189129
    26  C   -0.519023
    27  C   -0.404266
    28  C   -0.462555
    29  C   -0.462691
    30  H    0.142735
    31  H    0.164424
    32  C   -0.517617
    33  H    0.123774
    34  H    0.150807
    35  H    0.178780
    36  H    0.152631
    37  H    0.152821
    38  H    0.163682
    39  H    0.153327
    40  H    0.148809
    41  H    0.159931
    42  H    0.174456
    43  H    0.147287
    44  H    0.413231
    45  H    0.167414
    46  H    0.174055
    47  H    0.144852
    48  H    0.161274
    49  H    0.168712
    50  H    0.156435
    51  H    0.144982
    52  H    0.140035
    53  H    0.148652
    54  H    0.138986
    55  H    0.184199
    56  H    0.157868
    57  H    0.148404
    58  H    0.163359
    59  H    0.158001
    60  H    0.162803
    61  H    0.148496
    62  C   -0.449565
    63  H    0.140180
    64  H    0.143728
    65  H    0.144291
 Sum of Mulliken atomic charges =   0.00000
 Mulliken charges with hydrogens summed into heavy atoms:
              1
     1  C   -0.068093
     2  C    0.192532
     3  C   -0.023134
     4  C    0.320877
     5  C   -0.042366
     6  C   -0.003579
     7  C    0.208106
     8  C    0.401565
     9  C   -0.089702
    10  C    0.428025
    11  C    0.409461
    12  O   -0.454388
    13  C    0.018337
    14  C    0.055317
    15  C   -0.015744
    16  O   -0.509181
    17  C   -0.019294
    18  C    0.312455
    19  O   -0.538118
    20  C    0.000125
    21  O   -0.250474
    22  C    0.018445
    23  C    0.254713
    24  O   -0.589703
    25  C    0.189129
    26  C   -0.032602
    27  C   -0.119249
    28  C    0.009282
    29  C    0.006939
    32  C   -0.048316
    62  C   -0.021367
 Sum of Mulliken charges with hydrogens summed into heavy atoms =   0.00000
 Electronic spatial extent (au):  <R**2>=          11465.9364
 Charge=              0.0000 electrons
 Dipole moment (field-independent basis, Debye):
    X=             -4.4346    Y=              0.9420    Z=             -1.2286  Tot=              4.6971
 Quadrupole moment (field-independent basis, Debye-Ang):
   XX=           -187.3379   YY=           -174.2530   ZZ=           -183.6952
   XY=              0.8605   XZ=             -6.6223   YZ=             -1.1309
 Traceless Quadrupole moment (field-independent basis, Debye-Ang):
   XX=             -5.5759   YY=              7.5090   ZZ=             -1.9332
   XY=              0.8605   XZ=             -6.6223   YZ=             -1.1309
 Octapole moment (field-independent basis, Debye-Ang**2):
  XXX=             -4.4809  YYY=             28.0392  ZZZ=              8.4615  XYY=            -36.5497
  XXY=            -29.1367  XXZ=            -32.9155  XZZ=            -19.6856  YZZ=              4.6340
  YYZ=            -19.9558  XYZ=             -7.0041
 Hexadecapole moment (field-independent basis, Debye-Ang**3):
 XXXX=          -7562.6808 YYYY=          -4600.6901 ZZZZ=          -3193.5663 XXXY=             11.9848
 XXXZ=              8.8948 YYYX=             85.3447 YYYZ=            -11.4139 ZZZX=             29.1597
 ZZZY=            -21.8163 XXYY=          -1957.5150 XXZZ=          -1763.0883 YYZZ=          -1294.6436
 XXYZ=            -14.8965 YYXZ=             10.8285 ZZXY=             16.4718
 N-N= 3.521399692163D+03 E-N=-1.026919020827D+04  KE= 1.374765853807D+03
 Calling FoFJK, ICntrl=      2127 FMM=T ISym2X=0 I1Cent= 0 IOpClX= 0 NMat=1 NMatS=1 NMatT=0.
 ***** Axes restored to original set *****
 -------------------------------------------------------------------
 Center     Atomic                   Forces (Hartrees/Bohr)
 Number     Number              X              Y              Z
 -------------------------------------------------------------------
      1        6           0.009882826   -0.000703532    0.000384906
      2        6          -0.012526685   -0.005223506    0.001971362
      3        6          -0.000888524   -0.007820561   -0.000663525
      4        6           0.003700971   -0.004509937    0.010346217
      5        6          -0.011152015   -0.001200816    0.000282865
      6        6          -0.004848668   -0.010602905   -0.000920395
      7        6           0.010869398    0.019908881    0.008365600
      8        6           0.010210031   -0.013478156   -0.014617296
      9        6           0.001586682    0.005824419    0.013006109
     10        6          -0.005387393    0.002320789   -0.021122936
     11        6          -0.007123987   -0.028156413   -0.018081643
     12        8          -0.004468896    0.023153925    0.002519237
     13        6           0.003374818    0.001350270    0.000188446
     14        6          -0.005915889   -0.006819327   -0.002634276
     15        6           0.002046952    0.004178050    0.003573924
     16        8           0.006434153   -0.003955034    0.010138955
     17        6           0.007865286   -0.010936835   -0.005487116
     18        6           0.032162267    0.007513215   -0.000521346
     19        8          -0.027945956    0.002829216    0.026560935
     20        6           0.011319610   -0.005157259   -0.000138445
     21        8          -0.005712694    0.006530683   -0.002003723
     22        6          -0.010441603    0.010997175    0.000461715
     23        6           0.007860027    0.008945332    0.003755396
     24        8          -0.004239438   -0.003644005   -0.008727550
     25        6           0.009597600    0.011369506    0.006337004
     26        6          -0.000115149   -0.000213694   -0.000029856
     27        6          -0.003449383   -0.009241275   -0.003649137
     28        6          -0.003013401    0.007687804   -0.004895711
     29        6          -0.003689400   -0.006458158   -0.008974925
     30        1          -0.001609165    0.001110387   -0.001693324
     31        1          -0.003285823    0.006051804   -0.000088364
     32        6          -0.001074273    0.000763192   -0.001045382
     33        1           0.001360569   -0.000746585   -0.000103198
     34        1          -0.000659059    0.005592746    0.001921787
     35        1           0.000329680    0.007333776   -0.001189575
     36        1          -0.001080117   -0.004627328   -0.001907471
     37        1           0.003590100    0.000261557    0.001713705
     38        1           0.002781029    0.000258236    0.002426518
     39        1           0.000153464    0.000304560    0.000381507
     40        1          -0.000741700   -0.001055012   -0.000560233
     41        1          -0.000331830   -0.000390360    0.000530193
     42        1           0.000070181    0.002977387   -0.000206124
     43        1          -0.001305471   -0.001923802   -0.001425990
     44        1          -0.001891458   -0.002066028   -0.001362094
     45        1           0.001506266   -0.002804904   -0.001655183
     46        1           0.002229648   -0.000906166    0.002699937
     47        1          -0.003803470   -0.001163417    0.002493139
     48        1           0.001963320   -0.001348697   -0.000667540
     49        1          -0.003968345   -0.001003853   -0.000134828
     50        1          -0.004190682   -0.000861715   -0.000427463
     51        1           0.000472045   -0.000924875   -0.000163174
     52        1          -0.001149892    0.000050748   -0.000246894
     53        1           0.002076977   -0.003833477    0.000351637
     54        1           0.000502700   -0.000820565    0.000192413
     55        1          -0.001261855   -0.002697029    0.005559912
     56        1           0.000542223    0.002795398    0.001472488
     57        1          -0.000762746    0.001316363    0.000710549
     58        1          -0.000318369    0.000150141    0.003659317
     59        1          -0.001124994    0.001827676   -0.000650945
     60        1           0.004191169   -0.001591006    0.000298906
     61        1           0.004062882   -0.001085290    0.000118080
     62        6          -0.002467138    0.001879453   -0.001489971
     63        1           0.000325513    0.000749985   -0.002000740
     64        1          -0.000818435    0.000367969   -0.001042974
     65        1          -0.000304482    0.001570879   -0.001893413
 -------------------------------------------------------------------
 Cartesian Forces:  Max     0.032162267 RMS     0.006852713

 GradGradGradGradGradGradGradGradGradGradGradGradGradGradGradGradGradGrad
 Berny optimization.
 Internal  Forces:  Max     0.023523703 RMS     0.003493068
 Search for a local minimum.
 Step number   1 out of a maximum of  390
 All quantities printed in internal units (Hartrees-Bohrs-Radians)
 Mixed Optimization -- RFO/linear search
 Second derivative matrix not updated -- first step.
 ITU=  0
     Eigenvalues ---    0.00260   0.00275   0.00334   0.00357   0.00382
     Eigenvalues ---    0.00427   0.00473   0.00558   0.00586   0.00609
     Eigenvalues ---    0.00626   0.00681   0.00685   0.00694   0.00753
     Eigenvalues ---    0.01049   0.01084   0.01234   0.01252   0.01423
     Eigenvalues ---    0.01468   0.01628   0.01713   0.01823   0.01928
     Eigenvalues ---    0.02515   0.02819   0.02821   0.03030   0.03124
     Eigenvalues ---    0.03437   0.03501   0.03600   0.03845   0.04036
     Eigenvalues ---    0.04106   0.04323   0.04393   0.04630   0.04693
     Eigenvalues ---    0.04799   0.04842   0.04954   0.05092   0.05246
     Eigenvalues ---    0.05305   0.05384   0.05409   0.05436   0.05486
     Eigenvalues ---    0.05501   0.05518   0.05530   0.05549   0.05629
     Eigenvalues ---    0.05712   0.05912   0.05933   0.06268   0.06618
     Eigenvalues ---    0.06697   0.06875   0.07104   0.07109   0.07185
     Eigenvalues ---    0.07247   0.07258   0.07351   0.07685   0.08378
     Eigenvalues ---    0.08454   0.08501   0.09013   0.09185   0.09845
     Eigenvalues ---    0.10098   0.10656   0.10934   0.11627   0.12320
     Eigenvalues ---    0.13170   0.14641   0.15205   0.15969   0.16000
     Eigenvalues ---    0.16000   0.16000   0.16000   0.16000   0.16000
     Eigenvalues ---    0.16000   0.16000   0.16000   0.16000   0.16000
     Eigenvalues ---    0.16000   0.16000   0.16000   0.16000   0.16000
     Eigenvalues ---    0.16000   0.16000   0.16000   0.16000   0.16000
     Eigenvalues ---    0.16140   0.17165   0.17246   0.18367   0.18582
     Eigenvalues ---    0.19738   0.21542   0.21911   0.22730   0.23516
     Eigenvalues ---    0.24495   0.24932   0.24975   0.24987   0.24989
     Eigenvalues ---    0.24992   0.24998   0.25000   0.25880   0.27257
     Eigenvalues ---    0.27371   0.27726   0.27808   0.28115   0.28297
     Eigenvalues ---    0.28677   0.28736   0.28773   0.29179   0.29341
     Eigenvalues ---    0.29511   0.30163   0.30461   0.30583   0.30988
     Eigenvalues ---    0.31714   0.31746   0.31865   0.33472   0.33673
     Eigenvalues ---    0.33819   0.33856   0.33973   0.33987   0.34034
     Eigenvalues ---    0.34039   0.34051   0.34066   0.34069   0.34093
     Eigenvalues ---    0.34109   0.34128   0.34129   0.34193   0.34205
     Eigenvalues ---    0.34226   0.34239   0.34245   0.34251   0.34252
     Eigenvalues ---    0.34264   0.34276   0.34290   0.34302   0.34308
     Eigenvalues ---    0.34317   0.34344   0.34390   0.34458   0.34726
     Eigenvalues ---    0.34954   0.35092   0.35272   0.35397   0.36342
     Eigenvalues ---    0.37402   0.42932   0.43634   0.51843   0.53364
     Eigenvalues ---    0.54629   0.56152   0.89437   0.89864
 RFO step:  Lambda=-2.17339040D-02 EMin= 2.60349291D-03
 Linear search not attempted -- first point.
 Iteration  1 RMS(Cart)=  0.05217252 RMS(Int)=  0.00075283
 Iteration  2 RMS(Cart)=  0.00121694 RMS(Int)=  0.00025078
 Iteration  3 RMS(Cart)=  0.00000068 RMS(Int)=  0.00025078
 Variable       Old X    -DE/DX   Delta X   Delta X   Delta X     New X
                                 (Linear)    (Quad)   (Total)
    R1        2.53469  -0.00267   0.00000  -0.00524  -0.00526   2.52943
    R2        2.82248   0.00871   0.00000   0.02601   0.02595   2.84843
    R3        2.05750  -0.00004   0.00000  -0.00010  -0.00010   2.05740
    R4        2.85426   0.00371   0.00000   0.00832   0.00837   2.86262
    R5        2.84611   0.00308   0.00000   0.00909   0.00909   2.85519
    R6        2.94070   0.00495   0.00000   0.01098   0.01090   2.95160
    R7        2.91043   0.01105   0.00000   0.03777   0.03775   2.94818
    R8        2.07885  -0.00085   0.00000  -0.00238  -0.00238   2.07647
    R9        2.90671   0.00852   0.00000   0.02837   0.02815   2.93486
   R10        2.91349   0.00608   0.00000   0.02089   0.02102   2.93451
   R11        2.76624  -0.00490   0.00000  -0.01290  -0.01292   2.75332
   R12        2.91547   0.00023   0.00000   0.00339   0.00331   2.91878
   R13        2.90422   0.00626   0.00000   0.01400   0.01393   2.91815
   R14        2.89251   0.01117   0.00000   0.03782   0.03783   2.93035
   R15        2.07264   0.00299   0.00000   0.00826   0.00826   2.08091
   R16        2.07376  -0.00126   0.00000  -0.00349  -0.00349   2.07026
   R17        2.81359   0.00920   0.00000   0.02026   0.01987   2.83346
   R18        2.85819   0.01557   0.00000   0.05595   0.05544   2.91362
   R19        2.67754   0.00453   0.00000   0.01004   0.01004   2.68758
   R20        2.52475   0.01198   0.00000   0.02057   0.02060   2.54534
   R21        2.62998  -0.02049   0.00000  -0.04850  -0.04831   2.58167
   R22        2.79136  -0.00196   0.00000  -0.00966  -0.00947   2.78189
   R23        2.79421   0.02117   0.00000   0.05736   0.05736   2.85158
   R24        2.32996  -0.00915   0.00000  -0.00994  -0.00994   2.32002
   R25        2.33193  -0.02352   0.00000  -0.02568  -0.02568   2.30626
   R26        2.89296   0.00034   0.00000   0.00109   0.00109   2.89405
   R27        2.90682   0.00433   0.00000   0.01402   0.01402   2.92084
   R28        2.88950   0.00398   0.00000   0.01255   0.01255   2.90204
   R29        2.07637   0.00123   0.00000   0.00341   0.00341   2.07978
   R30        2.07352  -0.00044   0.00000  -0.00121  -0.00121   2.07231
   R31        2.07174   0.00017   0.00000   0.00046   0.00046   2.07221
   R32        2.87640   0.00848   0.00000   0.02623   0.02623   2.90264
   R33        2.06950   0.00034   0.00000   0.00092   0.00092   2.07043
   R34        2.06824   0.00001   0.00000   0.00003   0.00003   2.06827
   R35        2.06929   0.00054   0.00000   0.00150   0.00150   2.07078
   R36        2.91808  -0.00099   0.00000   0.00911   0.00938   2.92746
   R37        2.90543   0.00430   0.00000   0.01538   0.01546   2.92089
   R38        2.07113  -0.00155   0.00000  -0.00428  -0.00428   2.06685
[...]
     55          1           0       -0.689651    1.946840   -3.356396
     56          1           0        1.065134    4.721606   -1.610295
     57          1           0       -0.619689    5.040381   -1.154986
     58          1           0        0.514374    4.353788    0.030006
     59          1           0       -1.190018    1.860744    4.853092
     60          1           0       -0.833644    2.976442    3.525642
     61          1           0       -2.503532    2.531045    3.867175
     62          6           0        6.012204   -2.094996   -0.074905
     63          1           0        6.648998   -1.473169   -0.717260
     64          1           0        6.631563   -2.459632    0.752820
     65          1           0        5.700707   -2.968272   -0.658769
 ---------------------------------------------------------------------
 Rotational constants (GHZ):      0.1798092      0.1337233      0.1163935

 **********************************************************************

            Population analysis using the SCF density.

 **********************************************************************

 Orbital symmetries:
       Occupied  (A) (A) (A) (A) (A) (A) (A) (A) (A) (A) (A) (A)
                 (A) (A) (A) (A) (A) (A) (A) (A) (A) (A) (A) (A)
                 (A) (A) (A) (A) (A) (A) (A) (A) (A) (A) (A) (A)
                 (A) (A) (A) (A) (A) (A) (A) (A) (A) (A) (A) (A)
                 (A) (A) (A) (A) (A) (A) (A) (A) (A) (A) (A) (A)
                 (A) (A) (A) (A) (A) (A) (A) (A) (A) (A) (A) (A)
                 (A) (A) (A) (A) (A) (A) (A) (A) (A) (A) (A) (A)
                 (A) (A) (A) (A) (A) (A) (A) (A) (A) (A) (A) (A)
                 (A) (A) (A) (A) (A) (A) (A) (A) (A) (A) (A) (A)
                 (A) (A) (A) (A) (A) (A) (A)
       Virtual   (A) (A) (A) (A) (A) (A) (A) (A) (A) (A) (A) (A)
                 (A) (A) (A) (A) (A) (A) (A) (A) (A) (A) (A) (A)
                 (A) (A) (A) (A) (A) (A) (A) (A) (A) (A) (A) (A)
                 (A) (A) (A) (A) (A) (A) (A) (A) (A) (A) (A) (A)
                 (A) (A) (A) (A) (A) (A) (A) (A) (A) (A) (A) (A)
                 (A) (A) (A) (A) (A) (A) (A) (A) (A) (A) (A) (A)
                 (A) (A) (A) (A) (A) (A) (A) (A) (A) (A) (A) (A)
                 (A) (A) (A) (A) (A) (A) (A) (A) (A) (A) (A) (A)
                 (A) (A) (A) (A) (A) (A) (A) (A) (A) (A) (A) (A)
                 (A) (A) (A) (A) (A) (A) (A) (A) (A) (A) (A) (A)
                 (A) (A) (A) (A) (A) (A) (A) (A) (A) (A) (A) (A)
                 (A) (A) (A) (A) (A) (A) (A) (A) (A) (A) (A) (A)
                 (A) (A) (A) (A) (A) (A) (A) (A) (A) (A) (A) (A)
                 (A) (A) (A) (A) (A) (A) (A) (A) (A) (A) (A) (A)
                 (A) (A) (A) (A) (A) (A) (A) (A) (A) (A) (A) (A)
                 (A) (A) (A) (A) (A) (A) (A) (A) (A) (A) (A) (A)
                 (A) (A) (A) (A) (A) (A) (A) (A) (A) (A) (A) (A)
                 (A) (A) (A) (A) (A) (A) (A) (A) (A) (A) (A) (A)
                 (A) (A) (A) (A) (A) (A) (A) (A) (A) (A) (A) (A)
                 (A) (A) (A) (A) (A) (A) (A) (A) (A) (A) (A) (A)
                 (A) (A) (A) (A) (A) (A) (A) (A) (A) (A) (A) (A)
                 (A) (A) (A) (A) (A) (A) (A) (A) (A) (A) (A) (A)
                 (A) (A) (A) (A) (A) (A) (A) (A) (A) (A) (A) (A)
                 (A) (A) (A) (A) (A) (A) (A) (A) (A) (A) (A) (A)
                 (A) (A) (A) (A) (A) (A) (A) (A) (A) (A) (A) (A)
                 (A) (A) (A) (A) (A) (A) (A) (A) (A) (A) (A) (A)
                 (A) (A) (A) (A) (A) (A) (A) (A) (A) (A) (A) (A)
                 (A) (A) (A) (A) (A) (A) (A) (A) (A) (A) (A) (A)
                 (A) (A) (A) (A) (A) (A) (A) (A) (A) (A) (A) (A)
                 (A) (A) (A) (A) (A) (A) (A) (A) (A) (A) (A) (A)
                 (A) (A) (A) (A) (A) (A) (A) (A) (A) (A) (A) (A)
                 (A) (A) (A) (A) (A) (A) (A) (A) (A) (A) (A) (A)
                 (A) (A) (A) (A) (A) (A) (A) (A) (A) (A) (A) (A)
                 (A) (A) (A) (A) (A) (A) (A) (A) (A) (A) (A) (A)
                 (A) (A) (A) (A) (A) (A) (A) (A) (A) (A)
 The electronic state is 1-A.
 Alpha  occ. eigenvalues --  -19.19407 -19.16618 -19.15747 -19.12717 -19.12540
 Alpha  occ. eigenvalues --  -10.27180 -10.27089 -10.26545 -10.26510 -10.25714
 Alpha  occ. eigenvalues --  -10.25693 -10.25310 -10.21320 -10.20949 -10.20535
 Alpha  occ. eigenvalues --  -10.20240 -10.19810 -10.19734 -10.19427 -10.19279
 Alpha  occ. eigenvalues --  -10.19079 -10.18747 -10.18733 -10.18464 -10.18366
 Alpha  occ. eigenvalues --  -10.18081 -10.18069 -10.18020 -10.16518 -10.16241
 Alpha  occ. eigenvalues --  -10.16233  -1.09052  -1.05967  -1.02999  -1.02521
 Alpha  occ. eigenvalues --   -1.02294  -0.86675  -0.83561  -0.82429  -0.81339
 Alpha  occ. eigenvalues --   -0.80203  -0.79113  -0.76590  -0.74256  -0.73108
 Alpha  occ. eigenvalues --   -0.71783  -0.71031  -0.69831  -0.69599  -0.67894
 Alpha  occ. eigenvalues --   -0.64986  -0.64201  -0.63228  -0.61922  -0.60542
 Alpha  occ. eigenvalues --   -0.59251  -0.58025  -0.56892  -0.55132  -0.53868
 Alpha  occ. eigenvalues --   -0.52916  -0.52324  -0.50632  -0.50339  -0.49125
 Alpha  occ. eigenvalues --   -0.47800  -0.47025  -0.46462  -0.45868  -0.45712
 Alpha  occ. eigenvalues --   -0.44975  -0.44626  -0.44121  -0.43461  -0.43061
 Alpha  occ. eigenvalues --   -0.42973  -0.42513  -0.42017  -0.41791  -0.41223
 Alpha  occ. eigenvalues --   -0.41075  -0.40761  -0.40477  -0.39998  -0.39026
 Alpha  occ. eigenvalues --   -0.38936  -0.38698  -0.38194  -0.38043  -0.37800
 Alpha  occ. eigenvalues --   -0.37489  -0.37305  -0.37136  -0.37045  -0.36588
 Alpha  occ. eigenvalues --   -0.36154  -0.35914  -0.34968  -0.34487  -0.34303
 Alpha  occ. eigenvalues --   -0.33958  -0.33485  -0.33377  -0.32692  -0.31883
 Alpha  occ. eigenvalues --   -0.31107  -0.31018  -0.30319  -0.28270  -0.26431
 Alpha  occ. eigenvalues --   -0.26014  -0.24711  -0.24007  -0.23374  -0.22557
 Alpha virt. eigenvalues --   -0.04584  -0.01047   0.00876   0.02306   0.05142
 Alpha virt. eigenvalues --    0.07322   0.08258   0.08963   0.09414   0.10029
 Alpha virt. eigenvalues --    0.10499   0.11021   0.11336   0.12201   0.12430
 Alpha virt. eigenvalues --    0.12871   0.12966   0.14089   0.14190   0.14591
 Alpha virt. eigenvalues --    0.14935   0.15077   0.15590   0.15733   0.15809
 Alpha virt. eigenvalues --    0.16154   0.16464   0.16765   0.16926   0.17332
 Alpha virt. eigenvalues --    0.17821   0.17936   0.18173   0.18450   0.18790
 Alpha virt. eigenvalues --    0.19118   0.19197   0.19381   0.19870   0.20366
 Alpha virt. eigenvalues --    0.20843   0.21099   0.21362   0.22164   0.22411
 Alpha virt. eigenvalues --    0.22971   0.23303   0.23804   0.24102   0.24784
 Alpha virt. eigenvalues --    0.24977   0.25434   0.26197   0.26635   0.26750
 Alpha virt. eigenvalues --    0.27602   0.27847   0.28455   0.29088   0.29920
 Alpha virt. eigenvalues --    0.30382   0.31578   0.32636   0.33233   0.33834
 Alpha virt. eigenvalues --    0.35064   0.36074   0.36534   0.37828   0.39938
 Alpha virt. eigenvalues --    0.41649   0.45425   0.45838   0.48442   0.49002
 Alpha virt. eigenvalues --    0.49387   0.50543   0.51258   0.51363   0.51920
 Alpha virt. eigenvalues --    0.52322   0.52765   0.52936   0.53733   0.53932
 Alpha virt. eigenvalues --    0.54092   0.54542   0.55387   0.55417   0.56332
 Alpha virt. eigenvalues --    0.56675   0.56996   0.57633   0.58214   0.59086
 Alpha virt. eigenvalues --    0.59631   0.60306   0.60867   0.61519   0.61865
 Alpha virt. eigenvalues --    0.62561   0.62854   0.63053   0.63903   0.64639
 Alpha virt. eigenvalues --    0.65316   0.65714   0.66621   0.66935   0.67848
 Alpha virt. eigenvalues --    0.68215   0.68610   0.68695   0.69190   0.70169
 Alpha virt. eigenvalues --    0.70522   0.70644   0.71546   0.72514   0.73250
 Alpha virt. eigenvalues --    0.73722   0.74729   0.74904   0.75790   0.76398
 Alpha virt. eigenvalues --    0.76809   0.77021   0.78260   0.79015   0.79988
 Alpha virt. eigenvalues --    0.80463   0.81435   0.81732   0.81909   0.82572
 Alpha virt. eigenvalues --    0.83225   0.83794   0.84048   0.84770   0.85175
 Alpha virt. eigenvalues --    0.85519   0.86101   0.86249   0.86855   0.87110
 Alpha virt. eigenvalues --    0.87362   0.87619   0.88350   0.88627   0.88833
 Alpha virt. eigenvalues --    0.89230   0.89463   0.89945   0.90041   0.90573
 Alpha virt. eigenvalues --    0.91231   0.91365   0.91546   0.91996   0.92120
 Alpha virt. eigenvalues --    0.92582   0.93432   0.93568   0.94298   0.94405
 Alpha virt. eigenvalues --    0.95245   0.95821   0.96139   0.96948   0.97265
 Alpha virt. eigenvalues --    0.97309   0.98076   0.98790   0.99356   0.99814
 Alpha virt. eigenvalues --    1.00552   1.01327   1.02260   1.03759   1.04131
 Alpha virt. eigenvalues --    1.04635   1.06267   1.06642   1.07916   1.08702
 Alpha virt. eigenvalues --    1.08993   1.10470   1.11939   1.12184   1.13376
 Alpha virt. eigenvalues --    1.14197   1.14526   1.15710   1.16343   1.16550
 Alpha virt. eigenvalues --    1.17738   1.17831   1.19263   1.19816   1.22361
 Alpha virt. eigenvalues --    1.22751   1.23580   1.25156   1.26023   1.26834
 Alpha virt. eigenvalues --    1.28903   1.30447   1.31463   1.32235   1.32929
 Alpha virt. eigenvalues --    1.34578   1.36241   1.37537   1.39328   1.39969
 Alpha virt. eigenvalues --    1.40819   1.42400   1.43209   1.43524   1.45625
 Alpha virt. eigenvalues --    1.47228   1.47730   1.49152   1.50183   1.52060
 Alpha virt. eigenvalues --    1.54362   1.55292   1.55809   1.56524   1.58775
 Alpha virt. eigenvalues --    1.59369   1.60748   1.61947   1.62276   1.64064
 Alpha virt. eigenvalues --    1.65251   1.66539   1.66996   1.67912   1.69235
 Alpha virt. eigenvalues --    1.70266   1.72007   1.72834   1.73375   1.73903
 Alpha virt. eigenvalues --    1.74017   1.75405   1.75898   1.77048   1.78184
 Alpha virt. eigenvalues --    1.78731   1.79595   1.80485   1.81066   1.81796
 Alpha virt. eigenvalues --    1.82652   1.83576   1.83824   1.84755   1.85141
 Alpha virt. eigenvalues --    1.86002   1.86302   1.87186   1.87489   1.88067
 Alpha virt. eigenvalues --    1.89058   1.89362   1.89614   1.90228   1.91175
 Alpha virt. eigenvalues --    1.92093   1.92625   1.93454   1.94942   1.95397
 Alpha virt. eigenvalues --    1.96054   1.96260   1.96911   1.97851   1.98596
 Alpha virt. eigenvalues --    1.98778   1.99667   2.00098   2.00366   2.01481
 Alpha virt. eigenvalues --    2.02226   2.02879   2.04164   2.05468   2.06095
 Alpha virt. eigenvalues --    2.06291   2.07018   2.07597   2.07748   2.10211
 Alpha virt. eigenvalues --    2.10280   2.10294   2.11513   2.12218   2.13646
 Alpha virt. eigenvalues --    2.14309   2.14910   2.15912   2.16299   2.16938
 Alpha virt. eigenvalues --    2.18756   2.19694   2.20743   2.21617   2.22608
 Alpha virt. eigenvalues --    2.24024   2.24624   2.25505   2.25984   2.26500
 Alpha virt. eigenvalues --    2.27684   2.29238   2.30332   2.31232   2.31886
 Alpha virt. eigenvalues --    2.33183   2.33720   2.34062   2.34245   2.34902
 Alpha virt. eigenvalues --    2.35679   2.36246   2.36969   2.38255   2.39018
 Alpha virt. eigenvalues --    2.39811   2.40360   2.41379   2.41576   2.42659
 Alpha virt. eigenvalues --    2.43150   2.44536   2.45372   2.47321   2.49061
 Alpha virt. eigenvalues --    2.50123   2.50377   2.52364   2.53226   2.55397
 Alpha virt. eigenvalues --    2.55974   2.56536   2.57848   2.58979   2.59750
 Alpha virt. eigenvalues --    2.60322   2.61081   2.64086   2.64315   2.65804
 Alpha virt. eigenvalues --    2.66617   2.67932   2.68883   2.69638   2.70218
 Alpha virt. eigenvalues --    2.70819   2.71191   2.72941   2.76209   2.77018
 Alpha virt. eigenvalues --    2.77507   2.79569   2.80772   2.83606   2.84206
 Alpha virt. eigenvalues --    2.85067   2.90043   2.92188   2.94009   2.97968
 Alpha virt. eigenvalues --    2.97998   2.99974   3.00952   3.01882   3.03157
 Alpha virt. eigenvalues --    3.05900   3.07868   3.12038   3.18177   3.20894
 Alpha virt. eigenvalues --    3.25091   3.28355   4.03497   4.07572   4.09095
 Alpha virt. eigenvalues --    4.12454   4.13256   4.15291   4.18172   4.19327
 Alpha virt. eigenvalues --    4.23185   4.25232   4.26844   4.28084   4.31205
 Alpha virt. eigenvalues --    4.31915   4.35709   4.37739   4.40949   4.42833
 Alpha virt. eigenvalues --    4.45775   4.49547   4.52343   4.55708   4.58044
 Alpha virt. eigenvalues --    4.63142   4.65655   4.69933   4.75605   4.83415
 Alpha virt. eigenvalues --    4.89826   5.04916   5.15423
          Condensed to atoms (all electrons):
 Mulliken atomic charges:
              1
     1  C   -0.187476
     2  C    0.194521
     3  C   -0.189482
     4  C    0.321965
     5  C   -0.052697
     6  C   -0.332458
     7  C    0.198861
     8  C    0.401098
     9  C   -0.098661
    10  C    0.432790
    11  C    0.411305
    12  O   -0.447306
    13  C   -0.130551
    14  C   -0.263808
    15  C   -0.477919
    16  O   -0.520517
    17  C   -0.165811
    18  C    0.303749
    19  O   -0.519220
    20  C   -0.325685
    21  O   -0.662295
    22  C   -0.326954
    23  C    0.107179
    24  O   -0.590020
    25  C    0.187031
    26  C   -0.519552
    27  C   -0.408953
    28  C   -0.468640
    29  C   -0.457332
    30  H    0.142438
    31  H    0.165988
    32  C   -0.520082
    33  H    0.122815
    34  H    0.145002
    35  H    0.183850
    36  H    0.147594
    37  H    0.150144
    38  H    0.166983
    39  H    0.146187
    40  H    0.145492
    41  H    0.164744
    42  H    0.174727
    43  H    0.150880
    44  H    0.416137
    45  H    0.164839
    46  H    0.173438
    47  H    0.145815
    48  H    0.161876
    49  H    0.169762
    50  H    0.159042
    51  H    0.153623
    52  H    0.139725
    53  H    0.157521
    54  H    0.142715
    55  H    0.191211
    56  H    0.165428
    57  H    0.148047
    58  H    0.168007
    59  H    0.158039
    60  H    0.160009
    61  H    0.149840
    62  C   -0.450323
    63  H    0.138334
    64  H    0.142919
    65  H    0.144071
 Sum of Mulliken atomic charges =   0.00000
 Mulliken charges with hydrogens summed into heavy atoms:
              1
     1  C   -0.064661
     2  C    0.194521
     3  C   -0.023494
     4  C    0.321965
     5  C   -0.052697
     6  C   -0.003606
     7  C    0.198861
     8  C    0.401098
     9  C   -0.098661
    10  C    0.432790
    11  C    0.411305
    12  O   -0.447306
    13  C    0.017043
    14  C    0.053319
    15  C   -0.021496
    16  O   -0.520517
    17  C   -0.023373
    18  C    0.303749
    19  O   -0.519220
    20  C   -0.000079
    21  O   -0.246157
    22  C    0.011323
    23  C    0.252994
    24  O   -0.590020
    25  C    0.187031
    26  C   -0.028872
    27  C   -0.115606
    28  C    0.022807
    29  C    0.024150
    32  C   -0.052193
    62  C   -0.024998
 Sum of Mulliken charges with hydrogens summed into heavy atoms =   0.00000
 Electronic spatial extent (au):  <R**2>=          11538.4373
 Charge=              0.0000 electrons
 Dipole moment (field-independent basis, Debye):
    X=             -5.0221    Y=              0.4821    Z=             -1.1251  Tot=              5.1691
 Quadrupole moment (field-independent basis, Debye-Ang):
   XX=           -190.8440   YY=           -171.4947   ZZ=           -182.1498
   XY=             -2.3237   XZ=             -3.4740   YZ=             -0.0191
 Traceless Quadrupole moment (field-independent basis, Debye-Ang):
   XX=             -9.3478   YY=             10.0015   ZZ=             -0.6536
   XY=             -2.3237   XZ=             -3.4740   YZ=             -0.0191
 Octapole moment (field-independent basis, Debye-Ang**2):
  XXX=            -12.8821  YYY=             20.9069  ZZZ=              6.8238  XYY=            -49.3468
  XXY=            -21.3490  XXZ=            -31.1965  XZZ=            -10.4708  YZZ=              9.6530
  YYZ=            -23.2948  XYZ=             -5.4421
 Hexadecapole moment (field-independent basis, Debye-Ang**3):
 XXXX=          -7505.2907 YYYY=          -4672.7279 ZZZZ=          -3227.8637 XXXY=            -38.7575
 XXXZ=             40.2576 YYYX=             80.7172 YYYZ=            -34.7838 ZZZX=             37.4946
 ZZZY=            -17.6925 XXYY=          -2022.5650 XXZZ=          -1735.9240 YYZZ=          -1310.8395
 XXYZ=              5.3149 YYXZ=              8.0914 ZZXY=             29.1278
 N-N= 3.510568430995D+03 E-N=-1.024749893042D+04  KE= 1.374455589355D+03
 1\1\GINC-B0800\FOpt\RB3LYP\6-31G(d)\C26H34O5\CAOFEI\24-Mar-2021\0\\# o
 pt rb3lyp/6-31g(d) geom=connectivity\\Title Card Required\\0,1\C,-0.06
 28755652,0.0152952497,-0.0773522334\C,1.2736098985,-0.041389687,-0.046
 6741306\C,2.1135442271,1.2180652208,-0.0040452072\C,1.3573796354,2.548
 9693247,-0.3052833464\C,-0.1307204954,2.4808182381,-0.7375512872\C,-0.
 8585158643,1.291395563,-0.0668165755\C,2.2531947472,3.276408295,-1.341
 7423143\C,1.9210871732,2.9053143669,-2.7715892337\C,0.6807204254,2.605
 4056895,-3.2263862997\C,-0.4050132955,2.4249738967,-2.2649100978\C,0.4
 477175132,2.2648250908,-4.6865527379\O,1.0438922548,1.3224165097,-5.17
 60152597\C,-0.4940493979,3.1154267052,-5.5509881342\C,-1.7096901958,2.
 2531207381,-5.9764628711\C,-0.8834239338,4.4645189467,-4.9331405042\O,
 -1.5557203982,2.1975833212,-2.6359249777\C,3.6704389789,2.6678059528,-
 1.2653923263\C,4.244482488,2.9568074387,-2.674408015\O,3.0245870126,2.
 9122469371,-3.5273315395\C,3.3511776416,1.1921001809,-0.9483534633\O,2
 .1743781156,4.6862564377,-1.2390214315\C,-0.6758292774,3.8240099492,-0
 .1881021408\C,0.0946855446,3.986070231,1.1317254216\O,1.3665498461,3.3
 52269119,0.9024336164\C,0.2630929601,5.4101753766,1.6198593067\C,-1.01
 55286009,6.2016897236,1.7431596603\C,1.4545869775,5.9082224563,1.96689
 86512\C,4.8499961226,4.3567466125,-2.7977780451\C,5.1925013007,1.90275
 7848,-3.240246195\H,4.2741291531,3.1321795607,-0.479293689\H,2.4861580
 726,1.3411063458,1.0230583348\C,2.0135976357,-1.3544578464,0.019401810
 6\H,-0.6307106164,-0.9141012462,-0.0720879529\H,-1.1084944355,1.550656
 2937,0.9730405542\H,-1.812176302,1.1584122144,-0.5857107395\H,0.098388
 7417,3.3019184348,-6.4596186773\H,-1.3222219325,1.2954217218,-6.343058
 2177\H,-2.3115115044,2.0365162914,-5.086953898\H,-0.0018883651,5.01488
 74688,-4.5856770358\H,-1.3900704669,5.0932912696,-5.6723753839\H,-1.56
 03471011,4.3285183926,-4.0843855068\H,3.0901328734,0.6600043447,-1.869
 7572062\H,4.1986254844,0.6648063435,-0.5011592509\H,2.11403321,4.87476
 80094,-0.2823437255\H,-1.7602040932,3.7940666658,-0.0527322363\H,-0.43
 08235105,4.6438583782,-0.8706076861\H,-0.4212886079,3.4228757954,1.926
 8451483\H,-0.8299902079,7.1858442377,2.1823893756\H,-1.4960682028,6.34
 88469978,0.7676433338\H,-1.7443729554,5.6793901975,2.3780925129\H,2.35
 86379297,5.309246801,1.9245553047\H,1.5538530575,6.9277733353,2.329643
 5331\H,5.0686412467,4.5749661847,-3.848212189\H,5.7898025418,4.4081677
 142,-2.2359247141\H,4.165900839,5.11361072,-2.4100015263\H,5.479753955
 9,2.1690081826,-4.2621818617\H,6.1019081865,1.8541303511,-2.6308247639
 \H,4.7342441165,0.9117769858,-3.265788859\H,1.3171473259,-2.197664061,
 0.0564391695\H,2.671692105,-1.5019569322,-0.8463936747\H,2.6529827882,
 -1.4043311492,0.9124888931\C,-2.5782599195,2.8988635459,-7.060879989\H
 ,-1.9885147249,3.1397073445,-7.9547420336\H,-3.3802913053,2.2169382882
 ,-7.3665228366\H,-3.0512508509,3.8242470854,-6.7137726058\\Version=EM6
 4L-G09RevB.01\State=1-A\HF=-1387.3184497\RMSD=7.132e-09\RMSF=3.527e-06
 \Dipole=0.9140532,0.5878045,1.7189761\Quadrupole=5.5294342,-0.1106086,
 -5.4188257,-3.934723,-2.726783,-2.9458324\PG=C01 [X(C26H34O5)]\\@


 NO HUMAN INVESTIGATION CAN BECOME REAL SCIENCE
 WITHOUT GOING THROUGH MATHEMATICAL PEOPLE.
 -- LEONARDO DA VINCI, IN "PENSIERI" CA. 1492
 Job cpu time:  0 days  5 hours 41 minutes 19.9 seconds.
 File lengths (MBytes):  RWF=    186 Int=      0 D2E=      0 Chk=     20 Scr=      1
 Normal termination of Gaussian 09 at Wed Mar 24 17:25:54 2021.
