 Entering Gaussian System, Link 0=g09
 Initial command:
 /public/software/g09/g09/l1.exe /tmp/Gau-29253.inp -scrdir=/tmp/
 Entering Link 1 = /public/software/g09/g09/l1.exe PID=     29254.
  
 Copyright (c) 1988,1990,1992,1993,1995,1998,2003,2009,2010,
            Gaussian, Inc.  All Rights Reserved.
  
 This is part of the Gaussian(R) 09 program.  It is based on
 the Gaussian(R) 03 system (copyright 2003, Gaussian, Inc.),
 the Gaussian(R) 98 system (copyright 1998, Gaussian, Inc.),
 the Gaussian(R) 94 system (copyright 1995, Gaussian, Inc.),
 the Gaussian 92(TM) system (copyright 1992, Gaussian, Inc.),
 the Gaussian 90(TM) system (copyright 1990, Gaussian, Inc.),
 the Gaussian 88(TM) system (copyright 1988, Gaussian, Inc.),
 the Gaussian 86(TM) system (copyright 1986, Carnegie Mellon
 University), and the Gaussian 82(TM) system (copyright 1983,
 Carnegie Mellon University). Gaussian is a federally registered
 trademark of Gaussian, Inc.
  
 This software contains proprietary and confidential information,
 including trade secrets, belonging to Gaussian, Inc.
  
 This software is provided under written license and may be
 used, copied, transmitted, or stored only in accord with that
 written license.
  
 The following legend is applicable only to US Government
 contracts under FAR:
  
                    RESTRICTED RIGHTS LEGEND
  
 Use, reproduction and disclosure by the US Government is
 subject to restrictions as set forth in subparagraphs (a)
 and (c) of the Commercial Computer Software - Restricted
 Rights clause in FAR 52.227-19.
  
 Gaussian, Inc.
 340 Quinnipiac St., Bldg. 40, Wallingford CT 06492
  
  
 ---------------------------------------------------------------
 Warning -- This program may not be used in any manner that
 competes with the business of Gaussian, Inc. or will provide
 assistance to any competitor of Gaussian, Inc.  The licensee
 of this program is prohibited from giving any competitor of
 Gaussian, Inc. access to this program.  By using this program,
 the user acknowledges that Gaussian, Inc. is engaged in the
 business of creating and licensing software in the field of
 computational chemistry and represents and warrants to the
 licensee that it is not a competitor of Gaussian, Inc. and that
 it will not use this program in any manner prohibited above.
 ---------------------------------------------------------------
  

 Cite this work as:
 Gaussian 09, Revision B.01,
 M. J. Frisch, G. W. Trucks, H. B. Schlegel, G. E. Scuseria, 
 M. A. Robb, J. R. Cheeseman, G. Scalmani, V. Barone, B. Mennucci, 
 G. A. Petersson, H. Nakatsuji, M. Caricato, X. Li, H. P. Hratchian, 
 A. F. Izmaylov, J. Bloino, G. Zheng, J. L. Sonnenberg, M. Hada, 
 M. Ehara, K. Toyota, R. Fukuda, J. Hasegawa, M. Ishida, T. Nakajima, 
 Y. Honda, O. Kitao, H. Nakai, T. Vreven, J. A. Montgomery, Jr., 
 J. E. Peralta, F. Ogliaro, M. Bearpark, J. J. Heyd, E. Brothers, 
 K. N. Kudin, V. N. Staroverov, T. Keith, R. Kobayashi, J. Normand, 
 K. Raghavachari, A. Rendell, J. C. Burant, S. S. Iyengar, J. Tomasi, 
 M. Cossi, N. Rega, J. M. Millam, M. Klene, J. E. Knox, J. B. Cross, 
 V. Bakken, C. Adamo, J. Jaramillo, R. Gomperts, R. E. Stratmann, 
 O. Yazyev, A. J. Austin, R. Cammi, C. Pomelli, J. W. Ochterski, 
 R. L. Martin, K. Morokuma, V. G. Zakrzewski, G. A. Voth, 
 P. Salvador, J. J. Dannenberg, S. Dapprich, A. D. Daniels, 
 O. Farkas, J. B. Foresman, J. V. Ortiz, J. Cioslowski, 
 and D. J. Fox, Gaussian, Inc., Wallingford CT, 2010.
 
 ******************************************
 Gaussian 09:  EM64L-G09RevB.01 12-Aug-2010
                24-Mar-2021 
 ******************************************
 %mem=600MW
 %nprocshared=10
 Will use up to   10 processors via shared memory.
 ---------------------------------------
 # opt rb3lyp/6-31g(d) geom=connectivity
 ---------------------------------------
 1/14=-1,18=20,19=15,26=3,38=1,57=2/1,3;
 2/9=110,12=2,17=6,18=5,40=1/2;
 3/5=1,6=6,7=1,11=2,16=1,25=1,30=1,71=1,74=-5,116=1/1,2,3;
 4//1;
 5/5=2,38=5/2;
 6/7=2,8=2,9=2,10=2,28=1/1;
 7//1,2,3,16;
 1/14=-1,18=20,19=15/3(2);
 2/9=110/2;
 99//99;
 2/9=110/2;
 3/5=1,6=6,7=1,11=2,16=1,25=1,30=1,71=1,74=-5,116=1/1,2,3;
 4/5=5,16=3/1;
 5/5=2,38=5/2;
 7//1,2,3,16;
 1/14=-1,18=20,19=15/3(-5);
 2/9=110/2;
 6/7=2,8=2,9=2,10=2,19=2,28=1/1;
 99/9=1/99;
 -------------------
 Title Card Required
 -------------------
 Symbolic Z-matrix:
 Charge =  0 Multiplicity = 1
 C                     0.        0.        0. 
 C                     1.3401    0.        0. 
 C                     2.1219    1.2853    0. 
 C                     1.3735    2.5501    0.5164 
 C                    -0.1703    2.4833    0.6248 
 C                    -0.8101    1.2527   -0.0526 
 C                     1.9199    3.6983   -0.3589 
 C                     0.9978    4.1832   -1.4231 
 C                    -0.3271    4.2461   -1.2645 
 C                    -0.8812    3.6926   -0.0101 
 C                    -1.2029    4.6655   -2.3784 
 O                    -1.6663    3.7925   -3.1169 
 C                    -1.5804    6.1384   -2.5461 
 C                    -2.8076    6.5175   -1.704 
 C                    -0.4247    7.0953   -2.2515 
 O                    -1.9486    4.1221    0.4253 
 C                     3.0482    3.1434   -1.2077 
 C                     3.0101    4.0285   -2.4671 
 O                     1.6323    4.4417   -2.6303 
 C                     2.633     1.6764   -1.3904 
 O                     2.3359    4.8095    0.4218 
 C                    -0.4207    2.4968    2.1467 
 C                     0.9221    2.1519    2.7648 
 O                     1.854     2.7835    1.8762 
 C                     1.2062    2.6083    4.1765 
 C                     2.6239    2.3986    4.6432 
 C                     0.2934    3.1327    5.0125 
 C                     3.8632    5.2975   -2.3132 
 C                     3.4451    3.2993   -3.7411 
 H                     4.0223    3.1975   -0.7057 
 H                     2.9985    1.1298    0.6475 
 C                     2.1331   -1.2763   -0.0104 
 H                    -0.5483   -0.9396   -0.027 
 H                    -1.7891    1.054     0.4035 
 H                    -1.0234    1.449    -1.112 
 H                    -1.8287    6.2669   -3.6086 
 H                    -3.0293    7.5816   -1.854 
 H                    -2.5952    6.3928   -0.6366 
 H                    -0.1255    7.0624   -1.1985 
 H                    -0.7109    8.1272   -2.4826 
 H                     0.4511    6.8543   -2.8621 
 H                     1.8387    1.5599   -2.1381 
 H                     3.4813    1.0593   -1.7054 
 H                     2.4777    4.4596    1.3274 
 H                    -0.7258    3.5018    2.4632 
 H                    -1.2038    1.8046    2.4742 
 H                     1.0861    1.0676    2.7217 
 H                     3.3167    3.0154    4.0618 
 H                     2.9099    1.348     4.5271 
 H                     2.7551    2.6607    5.6986 
 H                     0.5594    3.4315    6.0226 
 H                    -0.7436    3.2793    4.7301 
 H                     3.5254    5.9244   -1.4829 
 H                     4.9184    5.0514   -2.1559 
 H                     3.7848    5.9257   -3.2083 
 H                     2.7594    2.4857   -3.9985 
 H                     4.4569    2.8929   -3.6439 
 H                     3.4278    3.9788   -4.6015 
 H                     1.4882   -2.1614   -0.0138 
 H                     2.7684   -1.3246   -0.9004 
 H                     2.7711   -1.3336    0.8773 
 C                    -4.0567    5.7234   -2.0609 
 H                    -4.9149    6.1008   -1.4955 
 H                    -4.2881    5.8132   -3.127 
 H                    -3.9421    4.6629   -1.8185 
 

 GradGradGradGradGradGradGradGradGradGradGradGradGradGradGradGradGradGrad
 Berny optimization.
 Initialization pass.
                           ----------------------------
                           !    Initial Parameters    !
                           ! (Angstroms and Degrees)  !
 --------------------------                            --------------------------
 ! Name  Definition              Value          Derivative Info.                !
 --------------------------------------------------------------------------------
 ! R1    R(1,2)                  1.3401         estimate D2E/DX2                !
 ! R2    R(1,6)                  1.4927         estimate D2E/DX2                !
 ! R3    R(1,33)                 1.0882         estimate D2E/DX2                !
 ! R4    R(2,3)                  1.5044         estimate D2E/DX2                !
 ! R5    R(2,32)                 1.5026         estimate D2E/DX2                !
 ! R6    R(3,4)                  1.5577         estimate D2E/DX2                !
 ! R7    R(3,20)                 1.5321         estimate D2E/DX2                !
 ! R8    R(3,31)                 1.1008         estimate D2E/DX2                !
 ! R9    R(4,5)                  1.549          estimate D2E/DX2                !
 ! R10   R(4,7)                  1.5437         estimate D2E/DX2                !
 ! R11   R(4,24)                 1.461          estimate D2E/DX2                !
 ! R12   R(5,6)                  1.5436         estimate D2E/DX2                !
 ! R13   R(5,10)                 1.5398         estimate D2E/DX2                !
 ! R14   R(5,22)                 1.5424         estimate D2E/DX2                !
 ! R15   R(6,34)                 1.0982         estimate D2E/DX2                !
 ! R16   R(6,35)                 1.0983         estimate D2E/DX2                !
 ! R17   R(7,8)                  1.4893         estimate D2E/DX2                !
 ! R18   R(7,17)                 1.517          estimate D2E/DX2                !
 ! R19   R(7,21)                 1.4203         estimate D2E/DX2                !
 ! R20   R(8,9)                  1.3358         estimate D2E/DX2                !
 ! R21   R(8,19)                 1.3881         estimate D2E/DX2                !
 ! R22   R(9,10)                 1.4788         estimate D2E/DX2                !
 ! R23   R(9,11)                 1.4777         estimate D2E/DX2                !
 ! R24   R(10,16)                1.2302         estimate D2E/DX2                !
 ! R25   R(11,12)                1.2338         estimate D2E/DX2                !
 ! R26   R(11,13)                1.5297         estimate D2E/DX2                !
 ! R27   R(13,14)                1.5359         estimate D2E/DX2                !
 ! R28   R(13,15)                1.5291         estimate D2E/DX2                !
 ! R29   R(13,36)                1.0987         estimate D2E/DX2                !
 ! R30   R(14,37)                1.0973         estimate D2E/DX2                !
 ! R31   R(14,38)                1.0954         estimate D2E/DX2                !
 ! R32   R(14,62)                1.5226         estimate D2E/DX2                !
 ! R33   R(15,39)                1.0952         estimate D2E/DX2                !
 ! R34   R(15,40)                1.0955         estimate D2E/DX2                !
 ! R35   R(15,41)                1.0945         estimate D2E/DX2                !
 ! R36   R(17,18)                1.5398         estimate D2E/DX2                !
 ! R37   R(17,20)                1.5355         estimate D2E/DX2                !
 ! R38   R(17,30)                1.0972         estimate D2E/DX2                !
 ! R39   R(18,19)                1.4477         estimate D2E/DX2                !
 ! R40   R(18,28)                1.5368         estimate D2E/DX2                !
 ! R41   R(18,29)                1.531          estimate D2E/DX2                !
 ! R42   R(20,42)                1.0971         estimate D2E/DX2                !
 ! R43   R(20,43)                1.0953         estimate D2E/DX2                !
 ! R44   R(21,44)                0.9811         estimate D2E/DX2                !
 ! R45   R(22,23)                1.5179         estimate D2E/DX2                !
 ! R46   R(22,45)                1.0969         estimate D2E/DX2                !
 ! R47   R(22,46)                1.0953         estimate D2E/DX2                !
 ! R48   R(23,24)                1.4342         estimate D2E/DX2                !
 ! R49   R(23,25)                1.5106         estimate D2E/DX2                !
 ! R50   R(23,47)                1.0975         estimate D2E/DX2                !
 ! R51   R(24,44)                1.8707         estimate D2E/DX2                !
 ! R52   R(25,26)                1.5072         estimate D2E/DX2                !
 ! R53   R(25,27)                1.3443         estimate D2E/DX2                !
 ! R54   R(26,48)                1.0947         estimate D2E/DX2                !
 ! R55   R(26,49)                1.095          estimate D2E/DX2                !
 ! R56   R(26,50)                1.0953         estimate D2E/DX2                !
 ! R57   R(27,51)                1.0864         estimate D2E/DX2                !
 ! R58   R(27,52)                1.0847         estimate D2E/DX2                !
 ! R59   R(28,53)                1.0939         estimate D2E/DX2                !
 ! R60   R(28,54)                1.0949         estimate D2E/DX2                !
 ! R61   R(28,55)                1.0964         estimate D2E/DX2                !
 ! R62   R(29,56)                1.0947         estimate D2E/DX2                !
 ! R63   R(29,57)                1.0947         estimate D2E/DX2                !
 ! R64   R(29,58)                1.0965         estimate D2E/DX2                !
 ! R65   R(32,59)                1.0951         estimate D2E/DX2                !
 ! R66   R(32,60)                1.0945         estimate D2E/DX2                !
 ! R67   R(32,61)                1.0947         estimate D2E/DX2                !
 ! R68   R(62,63)                1.0948         estimate D2E/DX2                !
 ! R69   R(62,64)                1.0946         estimate D2E/DX2                !
 ! R70   R(62,65)                1.0939         estimate D2E/DX2                !
 ! A1    A(2,1,6)              122.8671         estimate D2E/DX2                !
 ! A2    A(2,1,33)             120.2552         estimate D2E/DX2                !
 ! A3    A(6,1,33)             116.7614         estimate D2E/DX2                !
 ! A4    A(1,2,3)              121.3106         estimate D2E/DX2                !
 ! A5    A(1,2,32)             121.853          estimate D2E/DX2                !
 ! A6    A(3,2,32)             116.8349         estimate D2E/DX2                !
 ! A7    A(2,3,4)              116.3612         estimate D2E/DX2                !
 ! A8    A(2,3,20)             113.0447         estimate D2E/DX2                !
 ! A9    A(2,3,31)             107.0457         estimate D2E/DX2                !
 ! A10   A(4,3,20)             104.7056         estimate D2E/DX2                !
 ! A11   A(4,3,31)             107.5947         estimate D2E/DX2                !
 ! A12   A(20,3,31)            107.7099         estimate D2E/DX2                !
 ! A13   A(3,4,5)              117.84           estimate D2E/DX2                !
 ! A14   A(3,4,7)              104.2351         estimate D2E/DX2                !
 ! A15   A(3,4,24)             106.2755         estimate D2E/DX2                !
 ! A16   A(5,4,7)              115.1194         estimate D2E/DX2                !
 ! A17   A(5,4,24)             105.6367         estimate D2E/DX2                !
 ! A18   A(7,4,24)             107.0082         estimate D2E/DX2                !
 ! A19   A(4,5,6)              114.6303         estimate D2E/DX2                !
 ! A20   A(4,5,10)             113.4162         estimate D2E/DX2                !
 ! A21   A(4,5,22)             103.3243         estimate D2E/DX2                !
 ! A22   A(6,5,10)             104.7034         estimate D2E/DX2                !
 ! A23   A(6,5,22)             111.8824         estimate D2E/DX2                !
 ! A24   A(10,5,22)            108.967          estimate D2E/DX2                !
 ! A25   A(1,6,5)              115.381          estimate D2E/DX2                !
 ! A26   A(1,6,34)             108.5014         estimate D2E/DX2                !
 ! A27   A(1,6,35)             106.8198         estimate D2E/DX2                !
 ! A28   A(5,6,34)             109.36           estimate D2E/DX2                !
 ! A29   A(5,6,35)             111.1802         estimate D2E/DX2                !
 ! A30   A(34,6,35)            105.0591         estimate D2E/DX2                !
 ! A31   A(4,7,8)              115.353          estimate D2E/DX2                !
 ! A32   A(4,7,17)             107.9649         estimate D2E/DX2                !
 ! A33   A(4,7,21)             111.9572         estimate D2E/DX2                !
 ! A34   A(8,7,17)             100.3572         estimate D2E/DX2                !
 ! A35   A(8,7,21)             108.6263         estimate D2E/DX2                !
 ! A36   A(17,7,21)            112.0782         estimate D2E/DX2                !
 ! A37   A(7,8,9)              122.9962         estimate D2E/DX2                !
 ! A38   A(7,8,19)             113.5205         estimate D2E/DX2                !
 ! A39   A(9,8,19)             123.2198         estimate D2E/DX2                !
 ! A40   A(8,9,10)             117.0461         estimate D2E/DX2                !
 ! A41   A(8,9,11)             120.7758         estimate D2E/DX2                !
 ! A42   A(10,9,11)            121.5713         estimate D2E/DX2                !
 ! A43   A(5,10,9)             118.0813         estimate D2E/DX2                !
 ! A44   A(5,10,16)            121.9284         estimate D2E/DX2                !
 ! A45   A(9,10,16)            119.6465         estimate D2E/DX2                !
 ! A46   A(9,11,12)            118.2271         estimate D2E/DX2                !
 ! A47   A(9,11,13)            120.1431         estimate D2E/DX2                !
 ! A48   A(12,11,13)           121.5325         estimate D2E/DX2                !
 ! A49   A(11,13,14)           112.008          estimate D2E/DX2                !
 ! A50   A(11,13,15)           113.2607         estimate D2E/DX2                !
 ! A51   A(11,13,36)           105.9266         estimate D2E/DX2                !
 ! A52   A(14,13,15)           110.1094         estimate D2E/DX2                !
 ! A53   A(14,13,36)           108.7108         estimate D2E/DX2                !
 ! A54   A(15,13,36)           106.4957         estimate D2E/DX2                !
 ! A55   A(13,14,37)           109.018          estimate D2E/DX2                !
 ! A56   A(13,14,38)           110.5625         estimate D2E/DX2                !
 ! A57   A(13,14,62)           113.4692         estimate D2E/DX2                !
 ! A58   A(37,14,38)           106.426          estimate D2E/DX2                !
 ! A59   A(37,14,62)           107.9381         estimate D2E/DX2                !
 ! A60   A(38,14,62)           109.1536         estimate D2E/DX2                !
 ! A61   A(13,15,39)           111.8966         estimate D2E/DX2                !
 ! A62   A(13,15,40)           110.571          estimate D2E/DX2                !
 ! A63   A(13,15,41)           111.0699         estimate D2E/DX2                !
 ! A64   A(39,15,40)           107.6077         estimate D2E/DX2                !
 ! A65   A(39,15,41)           108.1298         estimate D2E/DX2                !
 ! A66   A(40,15,41)           107.3835         estimate D2E/DX2                !
 ! A67   A(7,17,18)            103.2362         estimate D2E/DX2                !
 ! A68   A(7,17,20)            102.4107         estimate D2E/DX2                !
 ! A69   A(7,17,30)            112.7235         estimate D2E/DX2                !
 ! A70   A(18,17,20)           116.4335         estimate D2E/DX2                !
 ! A71   A(18,17,30)           111.5829         estimate D2E/DX2                !
 ! A72   A(20,17,30)           109.9749         estimate D2E/DX2                !
 ! A73   A(17,18,19)           106.2498         estimate D2E/DX2                !
 ! A74   A(17,18,28)           112.272          estimate D2E/DX2                !
 ! A75   A(17,18,29)           113.5651         estimate D2E/DX2                !
 ! A76   A(19,18,28)           107.6935         estimate D2E/DX2                !
 ! A77   A(19,18,29)           108.2129         estimate D2E/DX2                !
 ! A78   A(28,18,29)           108.5959         estimate D2E/DX2                !
 ! A79   A(8,19,18)            106.4903         estimate D2E/DX2                !
 ! A80   A(3,20,17)            103.0675         estimate D2E/DX2                !
 ! A81   A(3,20,42)            110.4794         estimate D2E/DX2                !
 ! A82   A(3,20,43)            112.0576         estimate D2E/DX2                !
 ! A83   A(17,20,42)           112.2295         estimate D2E/DX2                !
 ! A84   A(17,20,43)           111.2886         estimate D2E/DX2                !
 ! A85   A(42,20,43)           107.7532         estimate D2E/DX2                !
 ! A86   A(7,21,44)            105.7038         estimate D2E/DX2                !
 ! A87   A(5,22,23)            104.8436         estimate D2E/DX2                !
 ! A88   A(5,22,45)            109.7467         estimate D2E/DX2                !
 ! A89   A(5,22,46)            113.9269         estimate D2E/DX2                !
 ! A90   A(23,22,45)           109.6778         estimate D2E/DX2                !
 ! A91   A(23,22,46)           111.5388         estimate D2E/DX2                !
 ! A92   A(45,22,46)           107.0903         estimate D2E/DX2                !
 ! A93   A(22,23,24)           102.8527         estimate D2E/DX2                !
 ! A94   A(22,23,25)           118.572          estimate D2E/DX2                !
 ! A95   A(22,23,47)           109.9189         estimate D2E/DX2                !
 ! A96   A(24,23,25)           108.8902         estimate D2E/DX2                !
 ! A97   A(24,23,47)           108.2802         estimate D2E/DX2                !
 ! A98   A(25,23,47)           107.8846         estimate D2E/DX2                !
 ! A99   A(4,24,23)            107.0146         estimate D2E/DX2                !
 ! A100  A(23,25,26)           115.1026         estimate D2E/DX2                !
 ! A101  A(23,25,27)           124.8433         estimate D2E/DX2                !
 ! A102  A(26,25,27)           120.0271         estimate D2E/DX2                !
 ! A103  A(25,26,48)           110.6359         estimate D2E/DX2                !
 ! A104  A(25,26,49)           110.2633         estimate D2E/DX2                !
 ! A105  A(25,26,50)           112.1931         estimate D2E/DX2                !
 ! A106  A(48,26,49)           108.601          estimate D2E/DX2                !
 ! A107  A(48,26,50)           107.5236         estimate D2E/DX2                !
 ! A108  A(49,26,50)           107.4851         estimate D2E/DX2                !
 ! A109  A(25,27,51)           121.281          estimate D2E/DX2                !
 ! A110  A(25,27,52)           122.6815         estimate D2E/DX2                !
 ! A111  A(51,27,52)           116.0369         estimate D2E/DX2                !
 ! A112  A(18,28,53)           112.1989         estimate D2E/DX2                !
 ! A113  A(18,28,54)           111.3322         estimate D2E/DX2                !
 ! A114  A(18,28,55)           110.5902         estimate D2E/DX2                !
 ! A115  A(53,28,54)           108.5054         estimate D2E/DX2                !
 ! A116  A(53,28,55)           105.6198         estimate D2E/DX2                !
 ! A117  A(54,28,55)           108.3613         estimate D2E/DX2                !
 ! A118  A(18,29,56)           111.8186         estimate D2E/DX2                !
 ! A119  A(18,29,57)           111.4409         estimate D2E/DX2                !
 ! A120  A(18,29,58)           110.6902         estimate D2E/DX2                !
 ! A121  A(56,29,57)           108.8996         estimate D2E/DX2                !
 ! A122  A(56,29,58)           105.4373         estimate D2E/DX2                !
 ! A123  A(57,29,58)           108.3196         estimate D2E/DX2                !
 ! A124  A(2,32,59)            112.0691         estimate D2E/DX2                !
 ! A125  A(2,32,60)            110.4519         estimate D2E/DX2                !
 ! A126  A(2,32,61)            110.2687         estimate D2E/DX2                !
 ! A127  A(59,32,60)           107.6745         estimate D2E/DX2                !
 ! A128  A(59,32,61)           107.6632         estimate D2E/DX2                !
 ! A129  A(60,32,61)           108.5894         estimate D2E/DX2                !
 ! A130  A(14,62,63)           110.0135         estimate D2E/DX2                !
 ! A131  A(14,62,64)           111.0352         estimate D2E/DX2                !
 ! A132  A(14,62,65)           111.5768         estimate D2E/DX2                !
 ! A133  A(63,62,64)           107.9985         estimate D2E/DX2                !
 ! A134  A(63,62,65)           107.5707         estimate D2E/DX2                !
 ! A135  A(64,62,65)           108.5123         estimate D2E/DX2                !
 ! D1    D(6,1,2,3)              2.4044         estimate D2E/DX2                !
 ! D2    D(6,1,2,32)          -177.1287         estimate D2E/DX2                !
 ! D3    D(33,1,2,3)           178.354          estimate D2E/DX2                !
 ! D4    D(33,1,2,32)           -1.1791         estimate D2E/DX2                !
 ! D5    D(2,1,6,5)            -31.4887         estimate D2E/DX2                !
 ! D6    D(2,1,6,34)          -154.5592         estimate D2E/DX2                !
 ! D7    D(2,1,6,35)            92.6496         estimate D2E/DX2                !
 ! D8    D(33,1,6,5)           152.4294         estimate D2E/DX2                !
 ! D9    D(33,1,6,34)           29.3589         estimate D2E/DX2                !
 ! D10   D(33,1,6,35)          -83.4323         estimate D2E/DX2                !
 ! D11   D(1,2,3,4)             21.7146         estimate D2E/DX2                !
 ! D12   D(1,2,3,20)           -99.5299         estimate D2E/DX2                !
 ! D13   D(1,2,3,31)           142.0329         estimate D2E/DX2                !
 ! D14   D(32,2,3,4)          -158.7298         estimate D2E/DX2                !
 ! D15   D(32,2,3,20)           80.0257         estimate D2E/DX2                !
 ! D16   D(32,2,3,31)          -38.4115         estimate D2E/DX2                !
 ! D17   D(1,2,32,59)           -0.2152         estimate D2E/DX2                !
 ! D18   D(1,2,32,60)          119.841          estimate D2E/DX2                !
 ! D19   D(1,2,32,61)         -120.1321         estimate D2E/DX2                !
 ! D20   D(3,2,32,59)         -179.7682         estimate D2E/DX2                !
 ! D21   D(3,2,32,60)          -59.712          estimate D2E/DX2                !
 ! D22   D(3,2,32,61)           60.315          estimate D2E/DX2                !
 ! D23   D(2,3,4,5)            -15.8647         estimate D2E/DX2                !
 ! D24   D(2,3,4,7)           -144.8604         estimate D2E/DX2                !
 ! D25   D(2,3,4,24)           102.2822         estimate D2E/DX2                !
 ! D26   D(20,3,4,5)           109.7079         estimate D2E/DX2                !
 ! D27   D(20,3,4,7)           -19.2878         estimate D2E/DX2                !
 ! D28   D(20,3,4,24)         -132.1452         estimate D2E/DX2                !
 ! D29   D(31,3,4,5)          -135.8885         estimate D2E/DX2                !
 ! D30   D(31,3,4,7)            95.1158         estimate D2E/DX2                !
 ! D31   D(31,3,4,24)          -17.7416         estimate D2E/DX2                !
 ! D32   D(2,3,20,17)          165.6088         estimate D2E/DX2                !
 ! D33   D(2,3,20,42)           45.525          estimate D2E/DX2                !
 ! D34   D(2,3,20,43)          -74.6421         estimate D2E/DX2                !
 ! D35   D(4,3,20,17)           37.9816         estimate D2E/DX2                !
 ! D36   D(4,3,20,42)          -82.1022         estimate D2E/DX2                !
 ! D37   D(4,3,20,43)          157.7307         estimate D2E/DX2                !
 ! D38   D(31,3,20,17)         -76.341          estimate D2E/DX2                !
 ! D39   D(31,3,20,42)         163.5752         estimate D2E/DX2                !
 ! D40   D(31,3,20,43)          43.4081         estimate D2E/DX2                !
 ! D41   D(3,4,5,6)            -11.2706         estimate D2E/DX2                !
 ! D42   D(3,4,5,10)          -131.4583         estimate D2E/DX2                !
 ! D43   D(3,4,5,22)           110.7304         estimate D2E/DX2                !
 ! D44   D(7,4,5,6)            112.4228         estimate D2E/DX2                !
 ! D45   D(7,4,5,10)            -7.7649         estimate D2E/DX2                !
 ! D46   D(7,4,5,22)          -125.5761         estimate D2E/DX2                !
 ! D47   D(24,4,5,6)          -129.7565         estimate D2E/DX2                !
 ! D48   D(24,4,5,10)          110.0558         estimate D2E/DX2                !
 ! D49   D(24,4,5,22)           -7.7555         estimate D2E/DX2                !
 ! D50   D(3,4,7,8)            104.5232         estimate D2E/DX2                !
 ! D51   D(3,4,7,17)            -6.7476         estimate D2E/DX2                !
 ! D52   D(3,4,7,21)          -130.5798         estimate D2E/DX2                !
 ! D53   D(5,4,7,8)            -26.0988         estimate D2E/DX2                !
 ! D54   D(5,4,7,17)          -137.3696         estimate D2E/DX2                !
 ! D55   D(5,4,7,21)            98.7983         estimate D2E/DX2                !
 ! D56   D(24,4,7,8)          -143.1457         estimate D2E/DX2                !
 ! D57   D(24,4,7,17)          105.5835         estimate D2E/DX2                !
 ! D58   D(24,4,7,21)          -18.2486         estimate D2E/DX2                !
 ! D59   D(3,4,24,23)          -94.8743         estimate D2E/DX2                !
 ! D60   D(5,4,24,23)           31.0641         estimate D2E/DX2                !
 ! D61   D(7,4,24,23)          154.1981         estimate D2E/DX2                !
 ! D62   D(4,5,6,1)             34.0036         estimate D2E/DX2                !
 ! D63   D(4,5,6,34)           156.6178         estimate D2E/DX2                !
 ! D64   D(4,5,6,35)           -87.8203         estimate D2E/DX2                !
 ! D65   D(10,5,6,1)           158.9139         estimate D2E/DX2                !
 ! D66   D(10,5,6,34)          -78.4718         estimate D2E/DX2                !
 ! D67   D(10,5,6,35)           37.09           estimate D2E/DX2                !
 ! D68   D(22,5,6,1)           -83.2132         estimate D2E/DX2                !
 ! D69   D(22,5,6,34)           39.401          estimate D2E/DX2                !
 ! D70   D(22,5,6,35)          154.9629         estimate D2E/DX2                !
 ! D71   D(4,5,10,9)            38.2289         estimate D2E/DX2                !
 ! D72   D(4,5,10,16)         -148.5313         estimate D2E/DX2                !
 ! D73   D(6,5,10,9)           -87.446          estimate D2E/DX2                !
 ! D74   D(6,5,10,16)           85.7939         estimate D2E/DX2                !
 ! D75   D(22,5,10,9)          152.7108         estimate D2E/DX2                !
 ! D76   D(22,5,10,16)         -34.0493         estimate D2E/DX2                !
 ! D77   D(4,5,22,23)          -16.3915         estimate D2E/DX2                !
 ! D78   D(4,5,22,45)          101.3353         estimate D2E/DX2                !
 ! D79   D(4,5,22,46)         -138.6071         estimate D2E/DX2                !
 ! D80   D(6,5,22,23)          107.4343         estimate D2E/DX2                !
 ! D81   D(6,5,22,45)         -134.8389         estimate D2E/DX2                !
 ! D82   D(6,5,22,46)          -14.7813         estimate D2E/DX2                !
 ! D83   D(10,5,22,23)        -137.2718         estimate D2E/DX2                !
 ! D84   D(10,5,22,45)         -19.545          estimate D2E/DX2                !
 ! D85   D(10,5,22,46)         100.5127         estimate D2E/DX2                !
 ! D86   D(4,7,8,9)             35.5658         estimate D2E/DX2                !
 ! D87   D(4,7,8,19)          -138.7051         estimate D2E/DX2                !
 ! D88   D(17,7,8,9)           151.2593         estimate D2E/DX2                !
 ! D89   D(17,7,8,19)          -23.0115         estimate D2E/DX2                !
 ! D90   D(21,7,8,9)           -91.0423         estimate D2E/DX2                !
 ! D91   D(21,7,8,19)           94.6868         estimate D2E/DX2                !
 ! D92   D(4,7,17,18)          151.2625         estimate D2E/DX2                !
 ! D93   D(4,7,17,20)           29.9295         estimate D2E/DX2                !
 ! D94   D(4,7,17,30)          -88.1941         estimate D2E/DX2                !
 ! D95   D(8,7,17,18)           30.141          estimate D2E/DX2                !
 ! D96   D(8,7,17,20)          -91.192          estimate D2E/DX2                !
 ! D97   D(8,7,17,30)          150.6844         estimate D2E/DX2                !
 ! D98   D(21,7,17,18)         -84.9785         estimate D2E/DX2                !
 ! D99   D(21,7,17,20)         153.6885         estimate D2E/DX2                !
 ! D100  D(21,7,17,30)          35.5649         estimate D2E/DX2                !
 ! D101  D(4,7,21,44)           20.0651         estimate D2E/DX2                !
 ! D102  D(8,7,21,44)          148.6069         estimate D2E/DX2                !
 ! D103  D(17,7,21,44)        -101.4282         estimate D2E/DX2                !
 ! D104  D(7,8,9,10)            -5.4293         estimate D2E/DX2                !
 ! D105  D(7,8,9,11)          -176.6357         estimate D2E/DX2                !
 ! D106  D(19,8,9,10)          168.2892         estimate D2E/DX2                !
 ! D107  D(19,8,9,11)           -2.9172         estimate D2E/DX2                !
 ! D108  D(7,8,19,18)            4.8478         estimate D2E/DX2                !
 ! D109  D(9,8,19,18)         -169.4084         estimate D2E/DX2                !
 ! D110  D(8,9,10,5)           -32.8718         estimate D2E/DX2                !
 ! D111  D(8,9,10,16)          153.729          estimate D2E/DX2                !
 ! D112  D(11,9,10,5)          138.2598         estimate D2E/DX2                !
 ! D113  D(11,9,10,16)         -35.1394         estimate D2E/DX2                !
 ! D114  D(8,9,11,12)           91.9776         estimate D2E/DX2                !
 ! D115  D(8,9,11,13)          -91.5526         estimate D2E/DX2                !
 ! D116  D(10,9,11,12)         -78.8265         estimate D2E/DX2                !
 ! D117  D(10,9,11,13)          97.6433         estimate D2E/DX2                !
 ! D118  D(9,11,13,14)         -85.8613         estimate D2E/DX2                !
 ! D119  D(9,11,13,15)          39.4057         estimate D2E/DX2                !
 ! D120  D(9,11,13,36)         155.7693         estimate D2E/DX2                !
 ! D121  D(12,11,13,14)         90.4893         estimate D2E/DX2                !
 ! D122  D(12,11,13,15)       -144.2436         estimate D2E/DX2                !
 ! D123  D(12,11,13,36)        -27.8801         estimate D2E/DX2                !
 ! D124  D(11,13,14,37)        179.5303         estimate D2E/DX2                !
 ! D125  D(11,13,14,38)         62.8666         estimate D2E/DX2                !
 ! D126  D(11,13,14,62)        -60.1514         estimate D2E/DX2                !
 ! D127  D(15,13,14,37)         52.5462         estimate D2E/DX2                !
 ! D128  D(15,13,14,38)        -64.1176         estimate D2E/DX2                !
 ! D129  D(15,13,14,62)        172.8644         estimate D2E/DX2                !
 ! D130  D(36,13,14,37)        -63.7656         estimate D2E/DX2                !
 ! D131  D(36,13,14,38)        179.5706         estimate D2E/DX2                !
 ! D132  D(36,13,14,62)         56.5527         estimate D2E/DX2                !
 ! D133  D(11,13,15,39)        -65.8302         estimate D2E/DX2                !
 ! D134  D(11,13,15,40)        174.2318         estimate D2E/DX2                !
 ! D135  D(11,13,15,41)         55.1167         estimate D2E/DX2                !
 ! D136  D(14,13,15,39)         60.4516         estimate D2E/DX2                !
 ! D137  D(14,13,15,40)        -59.4864         estimate D2E/DX2                !
 ! D138  D(14,13,15,41)       -178.6016         estimate D2E/DX2                !
 ! D139  D(36,13,15,39)        178.1427         estimate D2E/DX2                !
 ! D140  D(36,13,15,40)         58.2047         estimate D2E/DX2                !
 ! D141  D(36,13,15,41)        -60.9105         estimate D2E/DX2                !
 ! D142  D(13,14,62,63)       -174.7654         estimate D2E/DX2                !
 ! D143  D(13,14,62,64)        -55.2666         estimate D2E/DX2                !
 ! D144  D(13,14,62,65)         65.9245         estimate D2E/DX2                !
 ! D145  D(37,14,62,63)        -53.8375         estimate D2E/DX2                !
 ! D146  D(37,14,62,64)         65.6612         estimate D2E/DX2                !
 ! D147  D(37,14,62,65)       -173.1476         estimate D2E/DX2                !
 ! D148  D(38,14,62,63)         61.445          estimate D2E/DX2                !
 ! D149  D(38,14,62,64)       -179.0562         estimate D2E/DX2                !
 ! D150  D(38,14,62,65)        -57.8651         estimate D2E/DX2                !
 ! D151  D(7,17,18,19)         -29.5164         estimate D2E/DX2                !
 ! D152  D(7,17,18,28)          87.9653         estimate D2E/DX2                !
 ! D153  D(7,17,18,29)        -148.3523         estimate D2E/DX2                !
 ! D154  D(20,17,18,19)         81.7984         estimate D2E/DX2                !
 ! D155  D(20,17,18,28)       -160.7198         estimate D2E/DX2                !
 ! D156  D(20,17,18,29)        -37.0375         estimate D2E/DX2                !
 ! D157  D(30,17,18,19)       -150.8348         estimate D2E/DX2                !
 ! D158  D(30,17,18,28)        -33.353          estimate D2E/DX2                !
 ! D159  D(30,17,18,29)         90.3293         estimate D2E/DX2                !
 ! D160  D(7,17,20,3)          -41.6299         estimate D2E/DX2                !
 ! D161  D(7,17,20,42)          77.2432         estimate D2E/DX2                !
 ! D162  D(7,17,20,43)        -161.908          estimate D2E/DX2                !
 ! D163  D(18,17,20,3)        -153.4205         estimate D2E/DX2                !
 ! D164  D(18,17,20,42)        -34.5474         estimate D2E/DX2                !
 ! D165  D(18,17,20,43)         86.3013         estimate D2E/DX2                !
 ! D166  D(30,17,20,3)          78.425          estimate D2E/DX2                !
 ! D167  D(30,17,20,42)       -162.7019         estimate D2E/DX2                !
 ! D168  D(30,17,20,43)        -41.8532         estimate D2E/DX2                !
 ! D169  D(17,18,19,8)          15.6359         estimate D2E/DX2                !
 ! D170  D(28,18,19,8)        -104.8522         estimate D2E/DX2                !
 ! D171  D(29,18,19,8)         137.9318         estimate D2E/DX2                !
 ! D172  D(17,18,28,53)        -60.1113         estimate D2E/DX2                !
 ! D173  D(17,18,28,54)         61.7173         estimate D2E/DX2                !
 ! D174  D(17,18,28,55)       -177.754          estimate D2E/DX2                !
 ! D175  D(19,18,28,53)         56.5076         estimate D2E/DX2                !
 ! D176  D(19,18,28,54)        178.3362         estimate D2E/DX2                !
 ! D177  D(19,18,28,55)        -61.1351         estimate D2E/DX2                !
 ! D178  D(29,18,28,53)        173.4744         estimate D2E/DX2                !
 ! D179  D(29,18,28,54)        -64.6969         estimate D2E/DX2                !
 ! D180  D(29,18,28,55)         55.8318         estimate D2E/DX2                !
 ! D181  D(17,18,29,56)         64.377          estimate D2E/DX2                !
 ! D182  D(17,18,29,57)        -57.7684         estimate D2E/DX2                !
 ! D183  D(17,18,29,58)       -178.3848         estimate D2E/DX2                !
 ! D184  D(19,18,29,56)        -53.3265         estimate D2E/DX2                !
 ! D185  D(19,18,29,57)       -175.4719         estimate D2E/DX2                !
 ! D186  D(19,18,29,58)         63.9116         estimate D2E/DX2                !
 ! D187  D(28,18,29,56)       -169.9602         estimate D2E/DX2                !
 ! D188  D(28,18,29,57)         67.8944         estimate D2E/DX2                !
 ! D189  D(28,18,29,58)        -52.722          estimate D2E/DX2                !
 ! D190  D(5,22,23,24)          35.2147         estimate D2E/DX2                !
 ! D191  D(5,22,23,25)         155.3721         estimate D2E/DX2                !
 ! D192  D(5,22,23,47)         -79.9281         estimate D2E/DX2                !
 ! D193  D(45,22,23,24)        -82.5591         estimate D2E/DX2                !
 ! D194  D(45,22,23,25)         37.5983         estimate D2E/DX2                !
 ! D195  D(45,22,23,47)        162.2981         estimate D2E/DX2                !
 ! D196  D(46,22,23,24)        158.9719         estimate D2E/DX2                !
 ! D197  D(46,22,23,25)        -80.8707         estimate D2E/DX2                !
 ! D198  D(46,22,23,47)         43.8291         estimate D2E/DX2                !
 ! D199  D(22,23,24,4)         -41.4526         estimate D2E/DX2                !
 ! D200  D(25,23,24,4)        -168.0759         estimate D2E/DX2                !
 ! D201  D(47,23,24,4)          74.8676         estimate D2E/DX2                !
 ! D202  D(22,23,25,26)       -171.6787         estimate D2E/DX2                !
 ! D203  D(22,23,25,27)         10.2206         estimate D2E/DX2                !
 ! D204  D(24,23,25,26)        -54.6743         estimate D2E/DX2                !
 ! D205  D(24,23,25,27)        127.2251         estimate D2E/DX2                !
 ! D206  D(47,23,25,26)         62.6338         estimate D2E/DX2                !
 ! D207  D(47,23,25,27)       -115.4669         estimate D2E/DX2                !
 ! D208  D(23,25,26,48)         65.1166         estimate D2E/DX2                !
 ! D209  D(23,25,26,49)        -55.0398         estimate D2E/DX2                !
 ! D210  D(23,25,26,50)       -174.8095         estimate D2E/DX2                !
 ! D211  D(27,25,26,48)       -116.6838         estimate D2E/DX2                !
 ! D212  D(27,25,26,49)        123.1598         estimate D2E/DX2                !
 ! D213  D(27,25,26,50)          3.3901         estimate D2E/DX2                !
 ! D214  D(23,25,27,51)        179.2643         estimate D2E/DX2                !
 ! D215  D(23,25,27,52)         -0.4304         estimate D2E/DX2                !
 ! D216  D(26,25,27,51)          1.2509         estimate D2E/DX2                !
 ! D217  D(26,25,27,52)       -178.4438         estimate D2E/DX2                !
 --------------------------------------------------------------------------------
 Trust Radius=3.00D-01 FncErr=1.00D-07 GrdErr=1.00D-06
 Number of steps in this run=    390 maximum allowed number of steps=    390.
 GradGradGradGradGradGradGradGradGradGradGradGradGradGradGradGradGradGrad

 Stoichiometry    C26H34O5
 Framework group  C1[X(C26H34O5)]
 Deg. of freedom   189
 Full point group                 C1      NOp   1
 Largest Abelian subgroup         C1      NOp   1
 Largest concise Abelian subgroup C1      NOp   1
                         Standard orientation:                         
 ---------------------------------------------------------------------
 Center     Atomic      Atomic             Coordinates (Angstroms)
 Number     Number       Type             X           Y           Z
 ---------------------------------------------------------------------
      1          6           0       -1.896902   -0.099743    2.841699
      2          6           0       -2.426141    0.954994    2.206638
      3          6           0       -1.978358    1.339882    0.822962
      4          6           0       -1.302591    0.219283   -0.022074
      5          6           0       -0.808689   -1.047785    0.719633
      6          6           0       -0.802522   -0.930882    2.258752
      7          6           0       -0.225111    0.960123   -0.842599
      8          6           0        1.175142    0.775585   -0.370205
      9          6           0        1.623526   -0.372079    0.145825
     10          6           0        0.631718   -1.449365    0.352419
     11          6           0        3.001999   -0.479097    0.667415
     12          8           0        3.192085   -0.251405    1.865027
     13          6           0        4.136335   -0.941296   -0.248946
     14          6           0        4.250118   -2.472191   -0.296721
     15          6           0        4.035349   -0.377137   -1.666555
     16          8           0        0.998940   -2.623469    0.348802
     17          6           0       -0.398587    2.448651   -0.606745
     18          6           0        1.025805    3.003340   -0.792136
     19          8           0        1.928265    1.941179   -0.400880
     20          6           0       -0.969224    2.492714    0.818138
     21          8           0       -0.286040    0.627510   -2.222080
     22          6           0       -1.775388   -2.145587    0.230363
     23          6           0       -2.944706   -1.391723   -0.376678
     24          8           0       -2.314163   -0.247003   -0.967438
     25          6           0       -3.784065   -2.083202   -1.425127
     26          6           0       -4.796588   -1.205263   -2.114820
     27          6           0       -3.704620   -3.389096   -1.734037
     28          6           0        1.327276    3.356428   -2.257151
     29          6           0        1.323469    4.228425    0.076540
     30          1           0       -1.105546    2.909320   -1.308025
     31          1           0       -2.872818    1.675510    0.276008
     32          6           0       -3.483219    1.814092    2.841017
     33          1           0       -2.214373   -0.346894    3.852806
     34          1           0       -0.854575   -1.935002    2.700322
     35          1           0        0.144550   -0.508644    2.620868
     36          1           0        5.059509   -0.532619    0.184418
     37          1           0        5.069817   -2.748921   -0.971608
     38          1           0        3.339902   -2.912696   -0.717991
     39          1           0        3.155045   -0.757285   -2.195673
     40          1           0        4.918775   -0.650991   -2.253665
     41          1           0        3.978331    0.715783   -1.651973
     42          1           0       -0.196687    2.329770    1.579830
     43          1           0       -1.445270    3.456941    1.026215
     44          1           0       -1.186796    0.267316   -2.368871
     45          1           0       -1.286603   -2.752714   -0.541498
     46          1           0       -2.104571   -2.831139    1.018589
     47          1           0       -3.617297   -1.042807    0.417261
     48          1           0       -4.297025   -0.427400   -2.701170
     49          1           0       -5.446030   -0.723279   -1.376612
     50          1           0       -5.438598   -1.771941   -2.797811
     51          1           0       -4.346310   -3.829520   -2.492060
     52          1           0       -3.009590   -4.064872   -1.247344
     53          1           0        1.243992    2.488081   -2.917112
     54          1           0        0.654737    4.138208   -2.624938
     55          1           0        2.359396    3.710429   -2.363907
     56          1           0        1.296947    3.986535    1.143860
     57          1           0        0.616110    5.040260   -0.120729
     58          1           0        2.337178    4.600836   -0.113228
     59          1           0       -3.747108    1.467210    3.845679
     60          1           0       -3.134746    2.848093    2.927321
     61          1           0       -4.395084    1.802543    2.235454
     62          6           0        4.527761   -3.102276    1.061267
     63          1           0        4.689998   -4.179119    0.948561
     64          1           0        5.424021   -2.671235    1.518542
     65          1           0        3.687299   -2.965024    1.747806
 ---------------------------------------------------------------------
 Rotational constants (GHZ):      0.1983092      0.1336455      0.1107627
 Standard basis: 6-31G(d) (6D, 7F)
 There are   533 symmetry adapted basis functions of A   symmetry.
 Integral buffers will be    131072 words long.
 Raffenetti 2 integral format.
 Two-electron integral symmetry is turned on.
   533 basis functions,  1004 primitive gaussians,   533 cartesian basis functions
   115 alpha electrons      115 beta electrons
       nuclear repulsion energy      3519.6161949026 Hartrees.
 NAtoms=   65 NActive=   65 NUniq=   65 SFac= 1.00D+00 NAtFMM=   50 NAOKFM=T Big=T
 One-electron integrals computed using PRISM.
 NBasis=   533 RedAO= T  NBF=   533
 NBsUse=   533 1.00D-06 NBFU=   533
 Harris functional with IExCor=  402 diagonalized for initial guess.
 ExpMin= 1.61D-01 ExpMax= 5.48D+03 ExpMxC= 8.25D+02 IAcc=1 IRadAn=         1 AccDes= 0.00D+00
 HarFok:  IExCor=  402 AccDes= 0.00D+00 IRadAn=         1 IDoV= 1
 ScaDFX=  1.000000  1.000000  1.000000  1.000000
 FoFCou: FMM=F IPFlag=           0 FMFlag=      100000 FMFlg1=        2001
         NFxFlg=           0 DoJE=T BraDBF=F KetDBF=T FulRan=T
         Omega=  0.000000  0.000000  1.000000  0.000000  0.000000 ICntrl=     500 IOpCl=  0
         NMat0=    1 NMatS0=    1 NMatT0=    0 NMatD0=    1 NMtDS0=    0 NMtDT0=    0
         I1Cent=           4 NGrid=           0.
 Petite list used in FoFCou.
 Initial guess orbital symmetries:
       Occupied  (A) (A) (A) (A) (A) (A) (A) (A) (A) (A) (A) (A)
                 (A) (A) (A) (A) (A) (A) (A) (A) (A) (A) (A) (A)
                 (A) (A) (A) (A) (A) (A) (A) (A) (A) (A) (A) (A)
                 (A) (A) (A) (A) (A) (A) (A) (A) (A) (A) (A) (A)
                 (A) (A) (A) (A) (A) (A) (A) (A) (A) (A) (A) (A)
                 (A) (A) (A) (A) (A) (A) (A) (A) (A) (A) (A) (A)
                 (A) (A) (A) (A) (A) (A) (A) (A) (A) (A) (A) (A)
                 (A) (A) (A) (A) (A) (A) (A) (A) (A) (A) (A) (A)
                 (A) (A) (A) (A) (A) (A) (A) (A) (A) (A) (A) (A)
                 (A) (A) (A) (A) (A) (A) (A)
       Virtual   (A) (A) (A) (A) (A) (A) (A) (A) (A) (A) (A) (A)
                 (A) (A) (A) (A) (A) (A) (A) (A) (A) (A) (A) (A)
                 (A) (A) (A) (A) (A) (A) (A) (A) (A) (A) (A) (A)
                 (A) (A) (A) (A) (A) (A) (A) (A) (A) (A) (A) (A)
                 (A) (A) (A) (A) (A) (A) (A) (A) (A) (A) (A) (A)
                 (A) (A) (A) (A) (A) (A) (A) (A) (A) (A) (A) (A)
                 (A) (A) (A) (A) (A) (A) (A) (A) (A) (A) (A) (A)
                 (A) (A) (A) (A) (A) (A) (A) (A) (A) (A) (A) (A)
                 (A) (A) (A) (A) (A) (A) (A) (A) (A) (A) (A) (A)
                 (A) (A) (A) (A) (A) (A) (A) (A) (A) (A) (A) (A)
                 (A) (A) (A) (A) (A) (A) (A) (A) (A) (A) (A) (A)
                 (A) (A) (A) (A) (A) (A) (A) (A) (A) (A) (A) (A)
                 (A) (A) (A) (A) (A) (A) (A) (A) (A) (A) (A) (A)
                 (A) (A) (A) (A) (A) (A) (A) (A) (A) (A) (A) (A)
                 (A) (A) (A) (A) (A) (A) (A) (A) (A) (A) (A) (A)
                 (A) (A) (A) (A) (A) (A) (A) (A) (A) (A) (A) (A)
                 (A) (A) (A) (A) (A) (A) (A) (A) (A) (A) (A) (A)
                 (A) (A) (A) (A) (A) (A) (A) (A) (A) (A) (A) (A)
                 (A) (A) (A) (A) (A) (A) (A) (A) (A) (A) (A) (A)
                 (A) (A) (A) (A) (A) (A) (A) (A) (A) (A) (A) (A)
                 (A) (A) (A) (A) (A) (A) (A) (A) (A) (A) (A) (A)
                 (A) (A) (A) (A) (A) (A) (A) (A) (A) (A) (A) (A)
                 (A) (A) (A) (A) (A) (A) (A) (A) (A) (A) (A) (A)
                 (A) (A) (A) (A) (A) (A) (A) (A) (A) (A) (A) (A)
                 (A) (A) (A) (A) (A) (A) (A) (A) (A) (A) (A) (A)
                 (A) (A) (A) (A) (A) (A) (A) (A) (A) (A) (A) (A)
                 (A) (A) (A) (A) (A) (A) (A) (A) (A) (A) (A) (A)
                 (A) (A) (A) (A) (A) (A) (A) (A) (A) (A) (A) (A)
                 (A) (A) (A) (A) (A) (A) (A) (A) (A) (A) (A) (A)
                 (A) (A) (A) (A) (A) (A) (A) (A) (A) (A) (A) (A)
                 (A) (A) (A) (A) (A) (A) (A) (A) (A) (A) (A) (A)
                 (A) (A) (A) (A) (A) (A) (A) (A) (A) (A) (A) (A)
                 (A) (A) (A) (A) (A) (A) (A) (A) (A) (A) (A) (A)
                 (A) (A) (A) (A) (A) (A) (A) (A) (A) (A) (A) (A)
                 (A) (A) (A) (A) (A) (A) (A) (A) (A) (A)
 The electronic state of the initial guess is 1-A.
 Requested convergence on RMS density matrix=1.00D-08 within 128 cycles.
 Requested convergence on MAX density matrix=1.00D-06.
 Requested convergence on             energy=1.00D-06.
 No special actions if energy rises.
 Integral accuracy reduced to 1.0D-05 until final iterations.
 Initial convergence to 1.0D-05 achieved.  Increase integral accuracy.
 SCF Done:  E(RB3LYP) =  -1387.29997298     A.U. after   16 cycles
             Convg  =    0.3746D-08             -V/T =  2.0091

 **********************************************************************

            Population analysis using the SCF density.

 **********************************************************************

 Orbital symmetries:
       Occupied  (A) (A) (A) (A) (A) (A) (A) (A) (A) (A) (A) (A)
                 (A) (A) (A) (A) (A) (A) (A) (A) (A) (A) (A) (A)
                 (A) (A) (A) (A) (A) (A) (A) (A) (A) (A) (A) (A)
                 (A) (A) (A) (A) (A) (A) (A) (A) (A) (A) (A) (A)
                 (A) (A) (A) (A) (A) (A) (A) (A) (A) (A) (A) (A)
                 (A) (A) (A) (A) (A) (A) (A) (A) (A) (A) (A) (A)
                 (A) (A) (A) (A) (A) (A) (A) (A) (A) (A) (A) (A)
                 (A) (A) (A) (A) (A) (A) (A) (A) (A) (A) (A) (A)
                 (A) (A) (A) (A) (A) (A) (A) (A) (A) (A) (A) (A)
                 (A) (A) (A) (A) (A) (A) (A)
       Virtual   (A) (A) (A) (A) (A) (A) (A) (A) (A) (A) (A) (A)
                 (A) (A) (A) (A) (A) (A) (A) (A) (A) (A) (A) (A)
                 (A) (A) (A) (A) (A) (A) (A) (A) (A) (A) (A) (A)
                 (A) (A) (A) (A) (A) (A) (A) (A) (A) (A) (A) (A)
                 (A) (A) (A) (A) (A) (A) (A) (A) (A) (A) (A) (A)
                 (A) (A) (A) (A) (A) (A) (A) (A) (A) (A) (A) (A)
                 (A) (A) (A) (A) (A) (A) (A) (A) (A) (A) (A) (A)
                 (A) (A) (A) (A) (A) (A) (A) (A) (A) (A) (A) (A)
                 (A) (A) (A) (A) (A) (A) (A) (A) (A) (A) (A) (A)
                 (A) (A) (A) (A) (A) (A) (A) (A) (A) (A) (A) (A)
                 (A) (A) (A) (A) (A) (A) (A) (A) (A) (A) (A) (A)
                 (A) (A) (A) (A) (A) (A) (A) (A) (A) (A) (A) (A)
                 (A) (A) (A) (A) (A) (A) (A) (A) (A) (A) (A) (A)
                 (A) (A) (A) (A) (A) (A) (A) (A) (A) (A) (A) (A)
                 (A) (A) (A) (A) (A) (A) (A) (A) (A) (A) (A) (A)
                 (A) (A) (A) (A) (A) (A) (A) (A) (A) (A) (A) (A)
                 (A) (A) (A) (A) (A) (A) (A) (A) (A) (A) (A) (A)
                 (A) (A) (A) (A) (A) (A) (A) (A) (A) (A) (A) (A)
                 (A) (A) (A) (A) (A) (A) (A) (A) (A) (A) (A) (A)
                 (A) (A) (A) (A) (A) (A) (A) (A) (A) (A) (A) (A)
                 (A) (A) (A) (A) (A) (A) (A) (A) (A) (A) (A) (A)
                 (A) (A) (A) (A) (A) (A) (A) (A) (A) (A) (A) (A)
                 (A) (A) (A) (A) (A) (A) (A) (A) (A) (A) (A) (A)
                 (A) (A) (A) (A) (A) (A) (A) (A) (A) (A) (A) (A)
                 (A) (A) (A) (A) (A) (A) (A) (A) (A) (A) (A) (A)
                 (A) (A) (A) (A) (A) (A) (A) (A) (A) (A) (A) (A)
                 (A) (A) (A) (A) (A) (A) (A) (A) (A) (A) (A) (A)
                 (A) (A) (A) (A) (A) (A) (A) (A) (A) (A) (A) (A)
                 (A) (A) (A) (A) (A) (A) (A) (A) (A) (A) (A) (A)
                 (A) (A) (A) (A) (A) (A) (A) (A) (A) (A) (A) (A)
                 (A) (A) (A) (A) (A) (A) (A) (A) (A) (A) (A) (A)
                 (A) (A) (A) (A) (A) (A) (A) (A) (A) (A) (A) (A)
                 (A) (A) (A) (A) (A) (A) (A) (A) (A) (A) (A) (A)
                 (A) (A) (A) (A) (A) (A) (A) (A) (A) (A) (A) (A)
                 (A) (A) (A) (A) (A) (A) (A) (A) (A) (A)
 The electronic state is 1-A.
 Alpha  occ. eigenvalues --  -19.19481 -19.16979 -19.14594 -19.13708 -19.13461
 Alpha  occ. eigenvalues --  -10.27883 -10.27144 -10.26468 -10.26311 -10.25945
 Alpha  occ. eigenvalues --  -10.25613 -10.24762 -10.21860 -10.20398 -10.20378
 Alpha  occ. eigenvalues --  -10.19933 -10.19805 -10.19665 -10.19645 -10.19198
 Alpha  occ. eigenvalues --  -10.18895 -10.18831 -10.18667 -10.18577 -10.18481
 Alpha  occ. eigenvalues --  -10.18411 -10.18397 -10.17692 -10.17030 -10.16600
 Alpha  occ. eigenvalues --  -10.15370  -1.08435  -1.06283  -1.03529  -1.02362
 Alpha  occ. eigenvalues --   -1.01889  -0.87613  -0.83977  -0.82635  -0.81578
 Alpha  occ. eigenvalues --   -0.80442  -0.79776  -0.77011  -0.74361  -0.73553
 Alpha  occ. eigenvalues --   -0.72518  -0.71552  -0.69618  -0.69071  -0.68245
 Alpha  occ. eigenvalues --   -0.64994  -0.63932  -0.63614  -0.61933  -0.61139
 Alpha  occ. eigenvalues --   -0.59331  -0.58931  -0.57260  -0.55603  -0.54269
 Alpha  occ. eigenvalues --   -0.52933  -0.51800  -0.51028  -0.50535  -0.49455
 Alpha  occ. eigenvalues --   -0.48196  -0.47308  -0.46450  -0.46110  -0.45734
 Alpha  occ. eigenvalues --   -0.45157  -0.44773  -0.44233  -0.43809  -0.43337
 Alpha  occ. eigenvalues --   -0.42923  -0.42589  -0.42452  -0.41615  -0.41562
 Alpha  occ. eigenvalues --   -0.40779  -0.40642  -0.40464  -0.40058  -0.39761
 Alpha  occ. eigenvalues --   -0.39531  -0.39104  -0.38757  -0.38389  -0.38100
 Alpha  occ. eigenvalues --   -0.37781  -0.37013  -0.36912  -0.36706  -0.36194
 Alpha  occ. eigenvalues --   -0.35605  -0.35231  -0.35025  -0.34816  -0.34041
 Alpha  occ. eigenvalues --   -0.33784  -0.33214  -0.33006  -0.32772  -0.32117
 Alpha  occ. eigenvalues --   -0.32023  -0.31532  -0.30851  -0.27931  -0.27009
 Alpha  occ. eigenvalues --   -0.25780  -0.25036  -0.24436  -0.23687  -0.23047
 Alpha virt. eigenvalues --   -0.04574  -0.02165   0.00708   0.01550   0.02920
 Alpha virt. eigenvalues --    0.06509   0.08312   0.08885   0.09240   0.10312
 Alpha virt. eigenvalues --    0.10876   0.11476   0.11604   0.11933   0.12338
 Alpha virt. eigenvalues --    0.12834   0.13044   0.13514   0.13698   0.13934
 Alpha virt. eigenvalues --    0.14315   0.14908   0.14945   0.15389   0.15558
 Alpha virt. eigenvalues --    0.15707   0.16313   0.16607   0.16689   0.17568
 Alpha virt. eigenvalues --    0.17774   0.18170   0.18495   0.18869   0.19210
 Alpha virt. eigenvalues --    0.19462   0.19960   0.20072   0.20172   0.20773
 Alpha virt. eigenvalues --    0.20827   0.21054   0.21314   0.21576   0.21697
 Alpha virt. eigenvalues --    0.22529   0.23719   0.24096   0.24406   0.24669
 Alpha virt. eigenvalues --    0.25048   0.25552   0.25960   0.26620   0.26919
 Alpha virt. eigenvalues --    0.27073   0.27307   0.28092   0.28682   0.30524
 Alpha virt. eigenvalues --    0.31159   0.32392   0.32651   0.34079   0.34680
 Alpha virt. eigenvalues --    0.34993   0.35845   0.36907   0.38645   0.40279
 Alpha virt. eigenvalues --    0.41657   0.44640   0.45608   0.48015   0.48515
 Alpha virt. eigenvalues --    0.49795   0.50267   0.50799   0.51461   0.51861
 Alpha virt. eigenvalues --    0.52096   0.52514   0.53167   0.53306   0.53413
 Alpha virt. eigenvalues --    0.54372   0.54479   0.54929   0.55270   0.56384
 Alpha virt. eigenvalues --    0.56670   0.57355   0.57849   0.58342   0.59059
 Alpha virt. eigenvalues --    0.59477   0.60006   0.60606   0.61378   0.61528
 Alpha virt. eigenvalues --    0.61996   0.62972   0.63441   0.64190   0.65014
 Alpha virt. eigenvalues --    0.65342   0.65612   0.66006   0.66672   0.67264
 Alpha virt. eigenvalues --    0.67800   0.68232   0.68784   0.69077   0.69843
 Alpha virt. eigenvalues --    0.70081   0.71150   0.72174   0.72408   0.72639
 Alpha virt. eigenvalues --    0.74040   0.74288   0.75081   0.75919   0.76545
 Alpha virt. eigenvalues --    0.76876   0.77540   0.77963   0.78097   0.79302
 Alpha virt. eigenvalues --    0.79484   0.80027   0.81142   0.81791   0.82870
 Alpha virt. eigenvalues --    0.83526   0.83906   0.84039   0.84449   0.84526
 Alpha virt. eigenvalues --    0.85491   0.85860   0.86293   0.86804   0.87077
 Alpha virt. eigenvalues --    0.87420   0.87774   0.88660   0.88869   0.88987
 Alpha virt. eigenvalues --    0.89852   0.90042   0.90174   0.90770   0.91082
 Alpha virt. eigenvalues --    0.91415   0.91510   0.91848   0.92583   0.92785
 Alpha virt. eigenvalues --    0.93371   0.93477   0.93993   0.94188   0.94430
 Alpha virt. eigenvalues --    0.94554   0.95284   0.95837   0.96468   0.96925
 Alpha virt. eigenvalues --    0.96991   0.97742   0.97819   0.98271   0.99273
 Alpha virt. eigenvalues --    0.99690   1.00333   1.00963   1.02366   1.02689
 Alpha virt. eigenvalues --    1.03243   1.04629   1.05229   1.05766   1.07624
 Alpha virt. eigenvalues --    1.08231   1.09057   1.10358   1.11312   1.12682
 Alpha virt. eigenvalues --    1.13586   1.15108   1.15398   1.16027   1.16530
 Alpha virt. eigenvalues --    1.16987   1.17738   1.18100   1.21018   1.21349
 Alpha virt. eigenvalues --    1.22080   1.22687   1.24994   1.26002   1.26666
 Alpha virt. eigenvalues --    1.28491   1.30194   1.30892   1.31666   1.33426
 Alpha virt. eigenvalues --    1.34636   1.35426   1.38329   1.39234   1.40867
 Alpha virt. eigenvalues --    1.41409   1.42214   1.43858   1.45152   1.46324
 Alpha virt. eigenvalues --    1.48722   1.49054   1.50225   1.51108   1.51999
 Alpha virt. eigenvalues --    1.53535   1.55495   1.56322   1.57996   1.58528
 Alpha virt. eigenvalues --    1.59603   1.60229   1.61770   1.63466   1.63649
 Alpha virt. eigenvalues --    1.64903   1.65708   1.66393   1.67936   1.69461
 Alpha virt. eigenvalues --    1.70862   1.71834   1.72429   1.74381   1.74940
 Alpha virt. eigenvalues --    1.75490   1.76150   1.76950   1.78366   1.79182
 Alpha virt. eigenvalues --    1.79459   1.80106   1.80574   1.81866   1.83101
 Alpha virt. eigenvalues --    1.83316   1.84578   1.84859   1.86047   1.86450
 Alpha virt. eigenvalues --    1.87093   1.87514   1.87991   1.89057   1.89143
 Alpha virt. eigenvalues --    1.89809   1.90075   1.90665   1.91375   1.91706
 Alpha virt. eigenvalues --    1.92321   1.93290   1.94108   1.95137   1.95875
 Alpha virt. eigenvalues --    1.96441   1.97194   1.97755   1.98061   1.98873
 Alpha virt. eigenvalues --    1.99493   2.00135   2.00510   2.00578   2.01170
 Alpha virt. eigenvalues --    2.02729   2.03511   2.03710   2.04501   2.04736
 Alpha virt. eigenvalues --    2.05582   2.07200   2.08391   2.08407   2.09809
 Alpha virt. eigenvalues --    2.10170   2.11262   2.12736   2.13135   2.14185
 Alpha virt. eigenvalues --    2.14743   2.15442   2.16217   2.17171   2.18049
 Alpha virt. eigenvalues --    2.18719   2.19480   2.20230   2.21631   2.22671
 Alpha virt. eigenvalues --    2.23491   2.24756   2.25966   2.26114   2.28124
 Alpha virt. eigenvalues --    2.28422   2.28718   2.29658   2.30136   2.31226
 Alpha virt. eigenvalues --    2.32943   2.33127   2.33720   2.33771   2.34992
 Alpha virt. eigenvalues --    2.35654   2.37373   2.37865   2.38238   2.38945
 Alpha virt. eigenvalues --    2.40637   2.41690   2.41877   2.42437   2.43351
 Alpha virt. eigenvalues --    2.45247   2.46369   2.47233   2.47851   2.49039
 Alpha virt. eigenvalues --    2.49927   2.51783   2.52391   2.52981   2.54984
 Alpha virt. eigenvalues --    2.57060   2.57285   2.58904   2.59316   2.61712
 Alpha virt. eigenvalues --    2.62264   2.63568   2.64773   2.65486   2.66534
 Alpha virt. eigenvalues --    2.67188   2.68583   2.69696   2.69980   2.71412
 Alpha virt. eigenvalues --    2.72136   2.73810   2.74026   2.76426   2.78644
 Alpha virt. eigenvalues --    2.79502   2.80591   2.81566   2.82209   2.87241
 Alpha virt. eigenvalues --    2.89534   2.90896   2.93217   2.94266   2.95072
 Alpha virt. eigenvalues --    2.97448   2.99491   3.00093   3.01254   3.03406
 Alpha virt. eigenvalues --    3.05884   3.07638   3.12880   3.16320   3.20656
 Alpha virt. eigenvalues --    3.23895   3.28860   4.00000   4.10239   4.12005
 Alpha virt. eigenvalues --    4.13053   4.13996   4.16733   4.18706   4.19891
 Alpha virt. eigenvalues --    4.22229   4.22975   4.25839   4.27073   4.31073
 Alpha virt. eigenvalues --    4.32036   4.34145   4.37104   4.37855   4.42241
 Alpha virt. eigenvalues --    4.45329   4.49403   4.52051   4.57562   4.62544
 Alpha virt. eigenvalues --    4.65679   4.66325   4.70126   4.75269   4.77718
 Alpha virt. eigenvalues --    4.90220   4.96847   5.26668
          Condensed to atoms (all electrons):
 Mulliken atomic charges:
              1
     1  C   -0.194732
     2  C    0.194799
     3  C   -0.191345
     4  C    0.319199
     5  C   -0.031399
     6  C   -0.332625
     7  C    0.200914
     8  C    0.421434
     9  C   -0.098629
    10  C    0.402210
    11  C    0.416111
    12  O   -0.455206
    13  C   -0.147069
    14  C   -0.260054
    15  C   -0.472237
    16  O   -0.490261
    17  C   -0.152854
    18  C    0.305368
    19  O   -0.537607
    20  C   -0.307958
    21  O   -0.672060
    22  C   -0.311972
    23  C    0.098891
    24  O   -0.584674
    25  C    0.188849
    26  C   -0.504719
    27  C   -0.395172
    28  C   -0.460388
    29  C   -0.463620
    30  H    0.145430
    31  H    0.148728
    32  C   -0.519427
    33  H    0.126086
    34  H    0.163210
    35  H    0.183566
    36  H    0.146721
    37  H    0.131949
    38  H    0.164509
    39  H    0.158008
    40  H    0.143790
    41  H    0.157117
    42  H    0.166963
    43  H    0.148959
    44  H    0.418429
    45  H    0.176097
    46  H    0.152097
    47  H    0.137268
    48  H    0.166646
    49  H    0.150190
    50  H    0.153337
    51  H    0.141265
    52  H    0.149043
    53  H    0.185096
    54  H    0.140282
    55  H    0.149543
    56  H    0.160629
    57  H    0.148888
    58  H    0.158300
    59  H    0.158285
    60  H    0.157174
    61  H    0.153047
    62  C   -0.444285
    63  H    0.135084
    64  H    0.139603
    65  H    0.165177
 Sum of Mulliken atomic charges =   0.00000
 Mulliken charges with hydrogens summed into heavy atoms:
              1
     1  C   -0.068646
     2  C    0.194799
     3  C   -0.042617
     4  C    0.319199
     5  C   -0.031399
     6  C    0.014151
     7  C    0.200914
     8  C    0.421434
     9  C   -0.098629
    10  C    0.402210
    11  C    0.416111
    12  O   -0.455206
    13  C   -0.000348
    14  C    0.036404
    15  C   -0.013322
    16  O   -0.490261
    17  C   -0.007424
    18  C    0.305368
    19  O   -0.537607
    20  C    0.007965
    21  O   -0.253631
    22  C    0.016222
    23  C    0.236159
    24  O   -0.584674
    25  C    0.188849
    26  C   -0.034545
    27  C   -0.104864
    28  C    0.014533
    29  C    0.004198
    32  C   -0.050920
    62  C   -0.004421
 Sum of Mulliken charges with hydrogens summed into heavy atoms =   0.00000
 Electronic spatial extent (au):  <R**2>=          11487.5356
 Charge=              0.0000 electrons
 Dipole moment (field-independent basis, Debye):
    X=             -4.4469    Y=              2.9837    Z=             -0.6838  Tot=              5.3986
 Quadrupole moment (field-independent basis, Debye-Ang):
   XX=           -180.9519   YY=           -178.4039   ZZ=           -187.5661
   XY=              1.8913   XZ=             -8.2849   YZ=              0.9312
 Traceless Quadrupole moment (field-independent basis, Debye-Ang):
   XX=              1.3554   YY=              3.9034   ZZ=             -5.2588
   XY=              1.8913   XZ=             -8.2849   YZ=              0.9312
 Octapole moment (field-independent basis, Debye-Ang**2):
  XXX=             -9.9778  YYY=             50.2496  ZZZ=             -1.1711  XYY=            -11.0859
  XXY=             -5.9322  XXZ=            -41.0939  XZZ=            -32.2581  YZZ=             -5.0357
  YYZ=            -13.1613  XYZ=             -3.9318
 Hexadecapole moment (field-independent basis, Debye-Ang**3):
 XXXX=          -7947.1393 YYYY=          -4678.6575 ZZZZ=          -2583.3895 XXXY=            -18.5041
 XXXZ=            -28.0063 YYYX=             61.0935 YYYZ=             -2.9092 ZZZX=             -9.6793
 ZZZY=            -14.2742 XXYY=          -2112.1191 XXZZ=          -1782.6034 YYZZ=          -1207.8348
 XXYZ=             52.8639 YYXZ=             16.7271 ZZXY=             30.0395
 N-N= 3.519616194903D+03 E-N=-1.026558828416D+04  KE= 1.374830484428D+03
 Calling FoFJK, ICntrl=      2127 FMM=T ISym2X=0 I1Cent= 0 IOpClX= 0 NMat=1 NMatS=1 NMatT=0.
 ***** Axes restored to original set *****
 -------------------------------------------------------------------
 Center     Atomic                   Forces (Hartrees/Bohr)
 Number     Number              X              Y              Z
 -------------------------------------------------------------------
      1        6           0.009990251   -0.000013810    0.000808223
      2        6          -0.009442579   -0.006304637    0.003336597
      3        6          -0.006509091   -0.009775688   -0.003141998
      4        6           0.010786365   -0.007983139    0.012327632
      5        6          -0.008233334    0.005556423    0.006030012
      6        6          -0.009439087   -0.008475839   -0.005770534
      7        6           0.021011614    0.014271828    0.011603808
      8        6          -0.004833245   -0.003242721   -0.024299251
      9        6           0.010229035   -0.006084728    0.009529754
     10        6          -0.014470212    0.016452064   -0.005572971
     11        6          -0.028630975   -0.006559068   -0.019425221
     12        8           0.008104905    0.014574539    0.010692341
     13        6           0.007926986    0.006389970   -0.006732204
     14        6          -0.008292308   -0.002804906    0.003214872
     15        6           0.007454113    0.001409619    0.000984318
     16        8           0.007257072   -0.010239081    0.002352005
     17        6           0.003425013   -0.006565484   -0.011677928
     18        6           0.030487845    0.004553976   -0.012537619
     19        8          -0.013031193   -0.008035755    0.033224546
     20        6           0.009602254   -0.001539563   -0.005573860
     21        8          -0.003486689    0.004881143    0.005240069
     22        6          -0.006108604    0.000212292    0.011608061
     23        6          -0.004341691    0.003749779    0.007450133
     24        8           0.000378182    0.002561065   -0.011510016
     25        6          -0.002515463    0.006406997    0.013111386
     26        6           0.001095699    0.001385327    0.001120241
     27        6           0.001314124   -0.004211449   -0.010543999
     28        6          -0.001882966    0.008423789    0.001677023
     29        6          -0.008159291   -0.000643262   -0.007855147
     30        1          -0.002981299    0.001842937    0.000032001
     31        1          -0.001796913    0.006016353    0.000562918
     32        6          -0.002486119   -0.000369149    0.000002573
     33        1           0.000568556   -0.000706217    0.000030031
     34        1           0.000464213    0.005162234   -0.000468586
     35        1          -0.001110379    0.005060957   -0.001564296
     36        1          -0.003808842   -0.004168207    0.000557699
     37        1           0.004491723    0.001541670   -0.001726154
     38        1           0.002283327   -0.000907232   -0.000055271
     39        1           0.000537936   -0.000215180    0.000373566
     40        1          -0.001740905   -0.000273646    0.000002020
     41        1           0.001268589    0.000212249    0.000798462
     42        1           0.000299109    0.001040956    0.000728190
     43        1          -0.002040678   -0.001504349   -0.001460478
     44        1          -0.002997108    0.000899970   -0.003823233
     45        1           0.000360504   -0.002256753   -0.001517006
     46        1          -0.000106710    0.000623468   -0.003100741
     47        1           0.001221590   -0.003267760   -0.000587080
     48        1           0.002367406   -0.002348214   -0.001705519
     49        1           0.003375017   -0.001222862   -0.001965059
     50        1          -0.002027475    0.000255936   -0.000624932
     51        1           0.000574068   -0.001286940    0.000065937
     52        1          -0.000944404    0.000838455   -0.000789355
     53        1           0.000237752   -0.004502202    0.003437714
     54        1           0.000151276   -0.000766473   -0.000377928
     55        1           0.000644650   -0.003304762   -0.002284221
     56        1           0.001167021   -0.001700643    0.002630594
     57        1          -0.000101778    0.000801324    0.001363966
     58        1           0.001831126    0.001510558    0.001918193
     59        1          -0.000651537    0.000947710   -0.000322174
     60        1           0.003991206   -0.001562565   -0.000028992
     61        1           0.004320676   -0.001185766    0.000164835
     62        6          -0.004581305   -0.002038879    0.002211430
     63        1          -0.001467329   -0.000188601    0.000155570
     64        1          -0.000800227   -0.001091228   -0.001120944
     65        1          -0.000199467   -0.000236828   -0.001183999
 -------------------------------------------------------------------
 Cartesian Forces:  Max     0.033224546 RMS     0.006984245

 GradGradGradGradGradGradGradGradGradGradGradGradGradGradGradGradGradGrad
 Berny optimization.
 Internal  Forces:  Max     0.020419300 RMS     0.003454851
 Search for a local minimum.
 Step number   1 out of a maximum of  390
 All quantities printed in internal units (Hartrees-Bohrs-Radians)
 Mixed Optimization -- RFO/linear search
 Second derivative matrix not updated -- first step.
 ITU=  0
     Eigenvalues ---    0.00279   0.00292   0.00356   0.00373   0.00381
     Eigenvalues ---    0.00467   0.00473   0.00568   0.00590   0.00626
     Eigenvalues ---    0.00646   0.00671   0.00730   0.00731   0.00888
     Eigenvalues ---    0.01060   0.01167   0.01253   0.01304   0.01451
     Eigenvalues ---    0.01510   0.01719   0.01740   0.01840   0.02087
     Eigenvalues ---    0.02624   0.02826   0.02826   0.03099   0.03202
     Eigenvalues ---    0.03456   0.03591   0.03706   0.03789   0.04075
     Eigenvalues ---    0.04252   0.04284   0.04374   0.04493   0.04657
     Eigenvalues ---    0.04825   0.04925   0.04974   0.05147   0.05283
     Eigenvalues ---    0.05317   0.05339   0.05411   0.05417   0.05466
     Eigenvalues ---    0.05503   0.05519   0.05571   0.05582   0.05635
     Eigenvalues ---    0.05646   0.05706   0.05869   0.05943   0.06144
     Eigenvalues ---    0.06557   0.06781   0.07094   0.07105   0.07149
     Eigenvalues ---    0.07183   0.07255   0.07310   0.07437   0.08041
     Eigenvalues ---    0.08336   0.08487   0.08947   0.09428   0.09448
     Eigenvalues ---    0.09991   0.10238   0.11428   0.11926   0.12313
     Eigenvalues ---    0.12575   0.13300   0.14562   0.15424   0.15892
     Eigenvalues ---    0.15965   0.16000   0.16000   0.16000   0.16000
     Eigenvalues ---    0.16000   0.16000   0.16000   0.16000   0.16000
     Eigenvalues ---    0.16000   0.16000   0.16000   0.16000   0.16000
     Eigenvalues ---    0.16000   0.16000   0.16000   0.16000   0.16000
     Eigenvalues ---    0.16000   0.16595   0.16961   0.18117   0.18628
     Eigenvalues ---    0.19817   0.20992   0.21921   0.22383   0.22569
     Eigenvalues ---    0.23458   0.24621   0.24829   0.24962   0.24984
     Eigenvalues ---    0.24992   0.24999   0.25000   0.26118   0.26713
     Eigenvalues ---    0.26961   0.27101   0.27397   0.27717   0.28388
     Eigenvalues ---    0.28802   0.28889   0.28923   0.29329   0.29449
     Eigenvalues ---    0.29508   0.30120   0.30302   0.30864   0.31290
     Eigenvalues ---    0.31633   0.31895   0.32103   0.33320   0.33589
     Eigenvalues ---    0.33830   0.33866   0.33887   0.33962   0.33988
     Eigenvalues ---    0.33996   0.34009   0.34022   0.34072   0.34089
     Eigenvalues ---    0.34184   0.34191   0.34202   0.34209   0.34209
     Eigenvalues ---    0.34221   0.34226   0.34241   0.34255   0.34262
     Eigenvalues ---    0.34271   0.34274   0.34276   0.34277   0.34285
     Eigenvalues ---    0.34292   0.34297   0.34369   0.34371   0.34830
     Eigenvalues ---    0.34971   0.35020   0.35228   0.35430   0.36668
     Eigenvalues ---    0.37147   0.41085   0.44295   0.50148   0.53563
     Eigenvalues ---    0.54444   0.56256   0.89523   0.91004
 RFO step:  Lambda=-2.19432957D-02 EMin= 2.78845925D-03
 Linear search not attempted -- first point.
 Iteration  1 RMS(Cart)=  0.05040385 RMS(Int)=  0.00092912
 Iteration  2 RMS(Cart)=  0.00156229 RMS(Int)=  0.00024867
 Iteration  3 RMS(Cart)=  0.00000141 RMS(Int)=  0.00024866
 Iteration  4 RMS(Cart)=  0.00000000 RMS(Int)=  0.00024866
 Variable       Old X    -DE/DX   Delta X   Delta X   Delta X     New X
                                 (Linear)    (Quad)   (Total)
    R1        2.53242  -0.00167   0.00000  -0.00375  -0.00381   2.52861
    R2        2.82088   0.00892   0.00000   0.02572   0.02561   2.84649
    R3        2.05643   0.00032   0.00000   0.00087   0.00087   2.05730
    R4        2.84290   0.00511   0.00000   0.01270   0.01274   2.85564
    R5        2.83956   0.00457   0.00000   0.01332   0.01332   2.85288
    R6        2.94366   0.00648   0.00000   0.01650   0.01643   2.96009
    R7        2.89529   0.01048   0.00000   0.03535   0.03530   2.93059
    R8        2.08030  -0.00195   0.00000  -0.00545  -0.00545   2.07485
    R9        2.92727   0.01305   0.00000   0.04162   0.04161   2.96888
   R10        2.91720   0.00766   0.00000   0.03059   0.03089   2.94809
   R11        2.76082  -0.00614   0.00000  -0.01713  -0.01716   2.74366
   R12        2.91691   0.00568   0.00000   0.02107   0.02103   2.93795
   R13        2.90974   0.00460   0.00000   0.00798   0.00767   2.91741
   R14        2.91475   0.00676   0.00000   0.02257   0.02258   2.93733
   R15        2.07522  -0.00154   0.00000  -0.00427  -0.00427   2.07095
   R16        2.07557   0.00263   0.00000   0.00729   0.00729   2.08286
   R17        2.81431   0.01119   0.00000   0.02619   0.02588   2.84019
   R18        2.86681   0.01490   0.00000   0.05304   0.05254   2.91935
   R19        2.68402   0.00278   0.00000   0.00702   0.00707   2.69109
   R20        2.52437   0.01206   0.00000   0.02104   0.02114   2.54551
   R21        2.62308  -0.01836   0.00000  -0.04295  -0.04267   2.58041
   R22        2.79456   0.00143   0.00000  -0.00062  -0.00045   2.79411
   R23        2.79251   0.02042   0.00000   0.05515   0.05515   2.84766
   R24        2.32474  -0.00904   0.00000  -0.00970  -0.00970   2.31504
   R25        2.33154  -0.01976   0.00000  -0.02154  -0.02154   2.30999
   R26        2.89076  -0.00274   0.00000  -0.00865  -0.00865   2.88211
   R27        2.90236   0.00624   0.00000   0.02008   0.02008   2.92244
   R28        2.88954   0.00682   0.00000   0.02152   0.02152   2.91106
   R29        2.07618  -0.00017   0.00000  -0.00046  -0.00046   2.07572
   R30        2.07350   0.00083   0.00000   0.00228   0.00228   2.07579
   R31        2.07010   0.00049   0.00000   0.00135   0.00135   2.07145
   R32        2.87724   0.00760   0.00000   0.02352   0.02352   2.90077
   R33        2.06958   0.00051   0.00000   0.00141   0.00141   2.07099
   R34        2.07021   0.00020   0.00000   0.00054   0.00054   2.07075
   R35        2.06831   0.00053   0.00000   0.00145   0.00145   2.06976
   R36        2.90977  -0.00009   0.00000   0.01147   0.01166   2.92143
[...]
     54          1           0        0.858503    4.148660   -2.708413
     55          1           0        2.478482    3.493197   -2.396448
     56          1           0        1.203737    4.079545    1.072911
     57          1           0        0.768246    5.127631   -0.294820
     58          1           0        2.430065    4.533981   -0.120784
     59          1           0       -4.039958    1.544586    3.620428
     60          1           0       -3.515281    2.930065    2.647625
     61          1           0       -4.618228    1.746583    1.953455
     62          6           0        4.313487   -3.350385    0.807519
     63          1           0        4.330644   -4.403042    0.502681
     64          1           0        5.262212   -3.130184    1.312033
     65          1           0        3.505872   -3.229004    1.534806
 ---------------------------------------------------------------------
 Rotational constants (GHZ):      0.1932596      0.1362665      0.1110436

 **********************************************************************

            Population analysis using the SCF density.

 **********************************************************************

 Orbital symmetries:
       Occupied  (A) (A) (A) (A) (A) (A) (A) (A) (A) (A) (A) (A)
                 (A) (A) (A) (A) (A) (A) (A) (A) (A) (A) (A) (A)
                 (A) (A) (A) (A) (A) (A) (A) (A) (A) (A) (A) (A)
                 (A) (A) (A) (A) (A) (A) (A) (A) (A) (A) (A) (A)
                 (A) (A) (A) (A) (A) (A) (A) (A) (A) (A) (A) (A)
                 (A) (A) (A) (A) (A) (A) (A) (A) (A) (A) (A) (A)
                 (A) (A) (A) (A) (A) (A) (A) (A) (A) (A) (A) (A)
                 (A) (A) (A) (A) (A) (A) (A) (A) (A) (A) (A) (A)
                 (A) (A) (A) (A) (A) (A) (A) (A) (A) (A) (A) (A)
                 (A) (A) (A) (A) (A) (A) (A)
       Virtual   (A) (A) (A) (A) (A) (A) (A) (A) (A) (A) (A) (A)
                 (A) (A) (A) (A) (A) (A) (A) (A) (A) (A) (A) (A)
                 (A) (A) (A) (A) (A) (A) (A) (A) (A) (A) (A) (A)
                 (A) (A) (A) (A) (A) (A) (A) (A) (A) (A) (A) (A)
                 (A) (A) (A) (A) (A) (A) (A) (A) (A) (A) (A) (A)
                 (A) (A) (A) (A) (A) (A) (A) (A) (A) (A) (A) (A)
                 (A) (A) (A) (A) (A) (A) (A) (A) (A) (A) (A) (A)
                 (A) (A) (A) (A) (A) (A) (A) (A) (A) (A) (A) (A)
                 (A) (A) (A) (A) (A) (A) (A) (A) (A) (A) (A) (A)
                 (A) (A) (A) (A) (A) (A) (A) (A) (A) (A) (A) (A)
                 (A) (A) (A) (A) (A) (A) (A) (A) (A) (A) (A) (A)
                 (A) (A) (A) (A) (A) (A) (A) (A) (A) (A) (A) (A)
                 (A) (A) (A) (A) (A) (A) (A) (A) (A) (A) (A) (A)
                 (A) (A) (A) (A) (A) (A) (A) (A) (A) (A) (A) (A)
                 (A) (A) (A) (A) (A) (A) (A) (A) (A) (A) (A) (A)
                 (A) (A) (A) (A) (A) (A) (A) (A) (A) (A) (A) (A)
                 (A) (A) (A) (A) (A) (A) (A) (A) (A) (A) (A) (A)
                 (A) (A) (A) (A) (A) (A) (A) (A) (A) (A) (A) (A)
                 (A) (A) (A) (A) (A) (A) (A) (A) (A) (A) (A) (A)
                 (A) (A) (A) (A) (A) (A) (A) (A) (A) (A) (A) (A)
                 (A) (A) (A) (A) (A) (A) (A) (A) (A) (A) (A) (A)
                 (A) (A) (A) (A) (A) (A) (A) (A) (A) (A) (A) (A)
                 (A) (A) (A) (A) (A) (A) (A) (A) (A) (A) (A) (A)
                 (A) (A) (A) (A) (A) (A) (A) (A) (A) (A) (A) (A)
                 (A) (A) (A) (A) (A) (A) (A) (A) (A) (A) (A) (A)
                 (A) (A) (A) (A) (A) (A) (A) (A) (A) (A) (A) (A)
                 (A) (A) (A) (A) (A) (A) (A) (A) (A) (A) (A) (A)
                 (A) (A) (A) (A) (A) (A) (A) (A) (A) (A) (A) (A)
                 (A) (A) (A) (A) (A) (A) (A) (A) (A) (A) (A) (A)
                 (A) (A) (A) (A) (A) (A) (A) (A) (A) (A) (A) (A)
                 (A) (A) (A) (A) (A) (A) (A) (A) (A) (A) (A) (A)
                 (A) (A) (A) (A) (A) (A) (A) (A) (A) (A) (A) (A)
                 (A) (A) (A) (A) (A) (A) (A) (A) (A) (A) (A) (A)
                 (A) (A) (A) (A) (A) (A) (A) (A) (A) (A) (A) (A)
                 (A) (A) (A) (A) (A) (A) (A) (A) (A) (A)
 The electronic state is 1-A.
 Alpha  occ. eigenvalues --  -19.19420 -19.16989 -19.14937 -19.13176 -19.13062
 Alpha  occ. eigenvalues --  -10.27103 -10.26878 -10.26617 -10.26451 -10.26083
 Alpha  occ. eigenvalues --  -10.25845 -10.24857 -10.21358 -10.20457 -10.20425
 Alpha  occ. eigenvalues --  -10.20313 -10.20178 -10.19772 -10.19385 -10.19070
 Alpha  occ. eigenvalues --  -10.19037 -10.18770 -10.18678 -10.18575 -10.18557
 Alpha  occ. eigenvalues --  -10.18327 -10.18256 -10.18243 -10.17182 -10.16773
 Alpha  occ. eigenvalues --  -10.15402  -1.08799  -1.06344  -1.03391  -1.02602
 Alpha  occ. eigenvalues --   -1.02108  -0.86824  -0.83647  -0.82098  -0.81286
 Alpha  occ. eigenvalues --   -0.80011  -0.79524  -0.76641  -0.73992  -0.72928
 Alpha  occ. eigenvalues --   -0.72047  -0.71336  -0.70090  -0.69121  -0.68158
 Alpha  occ. eigenvalues --   -0.64798  -0.63834  -0.63467  -0.61616  -0.60607
 Alpha  occ. eigenvalues --   -0.58976  -0.58725  -0.56755  -0.55444  -0.53879
 Alpha  occ. eigenvalues --   -0.52788  -0.51718  -0.51016  -0.49872  -0.49340
 Alpha  occ. eigenvalues --   -0.47982  -0.46972  -0.46780  -0.45932  -0.45788
 Alpha  occ. eigenvalues --   -0.45024  -0.44527  -0.44194  -0.43490  -0.43068
 Alpha  occ. eigenvalues --   -0.42821  -0.42240  -0.42143  -0.41461  -0.41305
 Alpha  occ. eigenvalues --   -0.40887  -0.40483  -0.40174  -0.40089  -0.39756
 Alpha  occ. eigenvalues --   -0.39351  -0.39047  -0.38886  -0.38381  -0.38040
 Alpha  occ. eigenvalues --   -0.37670  -0.37390  -0.37000  -0.36888  -0.36188
 Alpha  occ. eigenvalues --   -0.35588  -0.35308  -0.35144  -0.34760  -0.34167
 Alpha  occ. eigenvalues --   -0.33605  -0.33244  -0.32940  -0.32571  -0.32320
 Alpha  occ. eigenvalues --   -0.32012  -0.31181  -0.30675  -0.28045  -0.27262
 Alpha  occ. eigenvalues --   -0.25841  -0.24561  -0.24246  -0.23437  -0.22577
 Alpha virt. eigenvalues --   -0.03858  -0.01409   0.00963   0.01238   0.04000
 Alpha virt. eigenvalues --    0.06929   0.08152   0.08912   0.09200   0.10182
 Alpha virt. eigenvalues --    0.10654   0.11358   0.11583   0.12071   0.12239
 Alpha virt. eigenvalues --    0.12895   0.13021   0.13465   0.13792   0.13959
 Alpha virt. eigenvalues --    0.14373   0.14737   0.14996   0.15338   0.15593
 Alpha virt. eigenvalues --    0.15697   0.16481   0.16664   0.16844   0.17196
 Alpha virt. eigenvalues --    0.17762   0.18134   0.18455   0.18903   0.18988
 Alpha virt. eigenvalues --    0.19475   0.19783   0.19861   0.20354   0.20635
 Alpha virt. eigenvalues --    0.20919   0.21135   0.21367   0.21698   0.22226
 Alpha virt. eigenvalues --    0.22555   0.23584   0.24036   0.24145   0.24437
 Alpha virt. eigenvalues --    0.24810   0.24985   0.25756   0.26472   0.26547
 Alpha virt. eigenvalues --    0.27013   0.27322   0.28257   0.28596   0.30082
 Alpha virt. eigenvalues --    0.30796   0.31786   0.32387   0.33985   0.34267
 Alpha virt. eigenvalues --    0.34900   0.36001   0.37055   0.39066   0.39866
 Alpha virt. eigenvalues --    0.41484   0.44864   0.45346   0.47763   0.48311
 Alpha virt. eigenvalues --    0.49742   0.49906   0.50383   0.51193   0.51315
 Alpha virt. eigenvalues --    0.51732   0.51870   0.52677   0.53133   0.53525
 Alpha virt. eigenvalues --    0.53753   0.53846   0.54228   0.55180   0.55816
 Alpha virt. eigenvalues --    0.56606   0.56933   0.57658   0.58236   0.59055
 Alpha virt. eigenvalues --    0.59340   0.60172   0.60492   0.60709   0.61528
 Alpha virt. eigenvalues --    0.62017   0.62611   0.62934   0.63692   0.64686
 Alpha virt. eigenvalues --    0.65023   0.65732   0.65977   0.67067   0.67346
 Alpha virt. eigenvalues --    0.67924   0.68290   0.69111   0.69455   0.70104
 Alpha virt. eigenvalues --    0.70807   0.70990   0.71302   0.72498   0.73174
 Alpha virt. eigenvalues --    0.73865   0.74014   0.74540   0.75903   0.76083
 Alpha virt. eigenvalues --    0.76836   0.77066   0.77939   0.78211   0.79079
 Alpha virt. eigenvalues --    0.79369   0.79890   0.81190   0.81978   0.82948
 Alpha virt. eigenvalues --    0.83310   0.83713   0.83871   0.84353   0.84924
 Alpha virt. eigenvalues --    0.85620   0.85874   0.86261   0.86537   0.86826
 Alpha virt. eigenvalues --    0.87266   0.87655   0.88432   0.88969   0.88997
 Alpha virt. eigenvalues --    0.89342   0.89508   0.90041   0.90572   0.90899
 Alpha virt. eigenvalues --    0.91166   0.91447   0.91824   0.92373   0.93024
 Alpha virt. eigenvalues --    0.93150   0.93717   0.93954   0.94280   0.94457
 Alpha virt. eigenvalues --    0.95127   0.95481   0.95799   0.96029   0.96769
 Alpha virt. eigenvalues --    0.96989   0.97746   0.98092   0.98449   0.98865
 Alpha virt. eigenvalues --    0.99471   1.00175   1.01166   1.02194   1.02623
 Alpha virt. eigenvalues --    1.03764   1.03958   1.04515   1.04980   1.07926
 Alpha virt. eigenvalues --    1.09365   1.10571   1.10985   1.12416   1.12866
 Alpha virt. eigenvalues --    1.13394   1.14186   1.15571   1.16108   1.16663
 Alpha virt. eigenvalues --    1.16968   1.18189   1.18825   1.20772   1.21071
 Alpha virt. eigenvalues --    1.22184   1.22769   1.24392   1.26179   1.26749
 Alpha virt. eigenvalues --    1.27906   1.28714   1.31166   1.31936   1.33295
 Alpha virt. eigenvalues --    1.34785   1.35673   1.38464   1.38649   1.40559
 Alpha virt. eigenvalues --    1.41432   1.42873   1.43545   1.45337   1.46263
 Alpha virt. eigenvalues --    1.47564   1.49008   1.50596   1.51748   1.52721
 Alpha virt. eigenvalues --    1.53537   1.55033   1.56235   1.56831   1.58693
 Alpha virt. eigenvalues --    1.60179   1.60653   1.61098   1.62077   1.63773
 Alpha virt. eigenvalues --    1.64760   1.65281   1.65851   1.67704   1.69654
 Alpha virt. eigenvalues --    1.70266   1.71186   1.72374   1.73003   1.74458
 Alpha virt. eigenvalues --    1.74942   1.75389   1.76580   1.77973   1.78694
 Alpha virt. eigenvalues --    1.79493   1.79993   1.80754   1.81492   1.82445
 Alpha virt. eigenvalues --    1.83777   1.84132   1.84601   1.85084   1.85959
 Alpha virt. eigenvalues --    1.86279   1.86729   1.87442   1.87789   1.88500
 Alpha virt. eigenvalues --    1.89267   1.89743   1.90160   1.90907   1.91362
 Alpha virt. eigenvalues --    1.92286   1.92771   1.93776   1.94418   1.95366
 Alpha virt. eigenvalues --    1.95515   1.96515   1.96886   1.97473   1.97683
 Alpha virt. eigenvalues --    1.98550   1.99253   1.99600   2.00056   2.00958
 Alpha virt. eigenvalues --    2.02022   2.02577   2.03331   2.03726   2.04369
 Alpha virt. eigenvalues --    2.04495   2.06054   2.06705   2.07916   2.09015
 Alpha virt. eigenvalues --    2.09446   2.11004   2.12060   2.12637   2.13850
 Alpha virt. eigenvalues --    2.14178   2.15124   2.16107   2.16622   2.17486
 Alpha virt. eigenvalues --    2.18571   2.18958   2.19948   2.20715   2.22052
 Alpha virt. eigenvalues --    2.23725   2.24192   2.25408   2.26295   2.27112
 Alpha virt. eigenvalues --    2.27940   2.28672   2.29216   2.30425   2.31816
 Alpha virt. eigenvalues --    2.32707   2.32850   2.33173   2.33813   2.34385
 Alpha virt. eigenvalues --    2.35640   2.36967   2.38260   2.38583   2.39189
 Alpha virt. eigenvalues --    2.40288   2.40955   2.41380   2.42128   2.43056
 Alpha virt. eigenvalues --    2.44605   2.45217   2.47297   2.48490   2.48614
 Alpha virt. eigenvalues --    2.49823   2.50696   2.52382   2.52915   2.54457
 Alpha virt. eigenvalues --    2.56110   2.57743   2.58122   2.58817   2.60340
 Alpha virt. eigenvalues --    2.62023   2.62317   2.64760   2.65395   2.65923
 Alpha virt. eigenvalues --    2.67087   2.68456   2.69245   2.69705   2.71096
 Alpha virt. eigenvalues --    2.71786   2.73230   2.73572   2.76623   2.76865
 Alpha virt. eigenvalues --    2.77979   2.78280   2.79815   2.80572   2.86986
 Alpha virt. eigenvalues --    2.89387   2.90299   2.93205   2.94300   2.96272
 Alpha virt. eigenvalues --    2.97636   2.99250   2.99509   3.00786   3.03545
 Alpha virt. eigenvalues --    3.05234   3.06162   3.12053   3.13530   3.20814
 Alpha virt. eigenvalues --    3.22733   3.27126   4.00657   4.09745   4.11751
 Alpha virt. eigenvalues --    4.12960   4.14070   4.16188   4.17664   4.20003
 Alpha virt. eigenvalues --    4.22896   4.23818   4.24701   4.26822   4.30960
 Alpha virt. eigenvalues --    4.31594   4.32933   4.36066   4.36853   4.41453
 Alpha virt. eigenvalues --    4.46188   4.49106   4.52068   4.58429   4.62980
 Alpha virt. eigenvalues --    4.65342   4.66323   4.69106   4.73515   4.76919
 Alpha virt. eigenvalues --    4.89174   4.96321   5.24811
          Condensed to atoms (all electrons):
 Mulliken atomic charges:
              1
     1  C   -0.193530
     2  C    0.198066
     3  C   -0.197310
     4  C    0.315542
     5  C   -0.027030
     6  C   -0.333050
     7  C    0.197630
     8  C    0.421495
     9  C   -0.111471
    10  C    0.408897
    11  C    0.420334
    12  O   -0.445353
    13  C   -0.150077
    14  C   -0.261433
    15  C   -0.469687
    16  O   -0.496827
    17  C   -0.154483
    18  C    0.298106
    19  O   -0.537070
    20  C   -0.309457
    21  O   -0.671193
    22  C   -0.330258
    23  C    0.102378
    24  O   -0.585378
    25  C    0.188597
    26  C   -0.506320
    27  C   -0.394661
    28  C   -0.466688
    29  C   -0.460450
    30  H    0.146553
    31  H    0.145812
    32  C   -0.521219
    33  H    0.125533
    34  H    0.164931
    35  H    0.180001
    36  H    0.144467
    37  H    0.130818
    38  H    0.159410
    39  H    0.159886
    40  H    0.143403
    41  H    0.157091
    42  H    0.165162
    43  H    0.150534
    44  H    0.421201
    45  H    0.182681
    46  H    0.151165
    47  H    0.136823
    48  H    0.168762
    49  H    0.151609
    50  H    0.153832
    51  H    0.139130
    52  H    0.152556
    53  H    0.194569
    54  H    0.143991
    55  H    0.156069
    56  H    0.163283
    57  H    0.150191
    58  H    0.163083
    59  H    0.158491
    60  H    0.155558
    61  H    0.153713
    62  C   -0.445740
    63  H    0.137316
    64  H    0.136355
    65  H    0.173658
 Sum of Mulliken atomic charges =   0.00000
 Mulliken charges with hydrogens summed into heavy atoms:
              1
     1  C   -0.067997
     2  C    0.198066
     3  C   -0.051498
     4  C    0.315542
     5  C   -0.027030
     6  C    0.011882
     7  C    0.197630
     8  C    0.421495
     9  C   -0.111471
    10  C    0.408897
    11  C    0.420334
    12  O   -0.445353
    13  C   -0.005609
    14  C    0.028795
    15  C   -0.009309
    16  O   -0.496827
    17  C   -0.007930
    18  C    0.298106
    19  O   -0.537070
    20  C    0.006240
    21  O   -0.249992
    22  C    0.003588
    23  C    0.239201
    24  O   -0.585378
    25  C    0.188597
    26  C   -0.032116
    27  C   -0.102975
    28  C    0.027941
    29  C    0.016108
    32  C   -0.053457
    62  C    0.001589
 Sum of Mulliken charges with hydrogens summed into heavy atoms =   0.00000
 Electronic spatial extent (au):  <R**2>=          11461.2199
 Charge=              0.0000 electrons
 Dipole moment (field-independent basis, Debye):
    X=             -4.2789    Y=              3.7216    Z=             -1.3012  Tot=              5.8182
 Quadrupole moment (field-independent basis, Debye-Ang):
   XX=           -180.5625   YY=           -176.8826   ZZ=           -188.2151
   XY=              3.5549   XZ=             -8.7242   YZ=              1.7274
 Traceless Quadrupole moment (field-independent basis, Debye-Ang):
   XX=              1.3242   YY=              5.0041   ZZ=             -6.3283
   XY=              3.5549   XZ=             -8.7242   YZ=              1.7274
 Octapole moment (field-independent basis, Debye-Ang**2):
  XXX=             -7.6298  YYY=             56.1159  ZZZ=             -6.5039  XYY=             -9.2058
  XXY=             -0.4213  XXZ=            -36.5639  XZZ=            -33.5492  YZZ=             -3.2292
  YYZ=            -18.5412  XYZ=             -3.7965
 Hexadecapole moment (field-independent basis, Debye-Ang**3):
 XXXX=          -7768.3110 YYYY=          -4811.7092 ZZZZ=          -2584.7796 XXXY=            -15.8567
 XXXZ=            -33.2487 YYYX=             77.2493 YYYZ=            -10.8223 ZZZX=            -15.3567
 ZZZY=            -10.0527 XXYY=          -2105.1083 XXZZ=          -1755.7853 YYZZ=          -1232.6596
 XXYZ=             51.4447 YYXZ=             13.0973 ZZXY=             39.0524
 N-N= 3.512628437162D+03 E-N=-1.025155186325D+04  KE= 1.374464446693D+03
 1\1\GINC-B0801\FOpt\RB3LYP\6-31G(d)\C26H34O5\CAOFEI\24-Mar-2021\0\\# o
 pt rb3lyp/6-31g(d) geom=connectivity\\Title Card Required\\0,1\C,0.078
 9254251,-0.0782192552,-0.1202277634\C,1.4115676976,-0.0757121895,0.002
 7824018\C,2.1699918386,1.230972394,-0.0125769651\C,1.3937710448,2.4885
 446415,0.5006220456\C,-0.170553391,2.3796960426,0.5536163028\C,-0.7276
 376117,1.1820732586,-0.2778078431\C,1.9402505355,3.662482082,-0.374331
 9357\C,0.9721528605,4.0760044706,-1.4663578008\C,-0.3600778137,4.17849
 97856,-1.2850180171\C,-0.9110630343,3.6078037312,-0.0436448114\C,-1.33
 10464208,4.6399394083,-2.3581958955\O,-1.9215342533,3.7931904975,-3.00
 54904957\C,-1.5936532985,6.1299719937,-2.5526884137\C,-2.6001671864,6.
 6285140999,-1.4806842043\C,-0.3146600192,6.9815293513,-2.5386522784\O,
 -1.9905879009,3.9525985831,0.420538879\C,3.1049256803,3.1216403174,-1.
 2345910552\C,3.0621258375,4.0164265875,-2.4950894683\O,1.6209067884,4.
 3585092889,-2.6087235179\C,2.7236063441,1.6383224334,-1.4033259791\O,2
 .2479706989,4.8070711849,0.397073496\C,-0.4846700202,2.239235729,2.067
 3153622\C,0.8766432381,2.1182916386,2.7550735595\O,1.7937993615,2.7779
 74403,1.8482978661\C,1.0616891918,2.7017050291,4.1387573137\C,2.484170
 9152,2.710529716,4.6444759236\C,0.0368941584,3.1176269744,4.8879840945
 \C,3.8340587888,5.3242864922,-2.3018935781\C,3.4414100163,3.3397560183
 ,-3.8087723382\H,4.0585605893,3.2239114341,-0.7080530957\H,3.032817347
 ,1.1489479594,0.6630394366\C,2.2260038095,-1.337448673,0.1254982376\H,
 -0.4599445497,-1.0245485361,-0.138509723\H,-1.7667595905,1.0203042286,
 0.0277988318\H,-0.7776871885,1.4659657702,-1.339393317\H,-2.0760597981
 ,6.2082731018,-3.5354650261\H,-2.6794198033,7.7178815787,-1.5993452364
 \H,-2.1823790203,6.4493681905,-0.4827310768\H,0.1767234741,6.945513316
 ,-1.5600055578\H,-0.5658737036,8.0271248592,-2.7498726555\H,0.40594381
 24,6.6449304655,-3.2899734284\H,1.9378151814,1.5205501924,-2.158990244
 1\H,3.5664425273,1.0129231989,-1.7134147702\H,2.1951503216,4.504875598
 7,1.3267126365\H,-1.0272553859,3.1280933979,2.3962931521\H,-1.11563026
 96,1.3715696329,2.2765958616\H,1.1740776386,1.057274416,2.7951342965\H
 ,3.1297177994,3.3185562888,4.0006320251\H,2.9077132812,1.6965554515,4.
 6434090263\H,2.5414322619,3.1032202033,5.6638692616\H,0.1969532459,3.4
 875012903,5.8975680005\H,-0.9910501592,3.1007479789,4.5409399932\H,3.5
 542910647,5.8072105266,-1.3627399393\H,4.9116853908,5.1248386621,-2.28
 33707403\H,3.6263201748,6.0076734865,-3.1317354789\H,2.8272236622,2.45
 72681063,-4.0042606307\H,4.4934173234,3.0349938093,-3.7832237979\H,3.3
 092081106,4.03721983,-4.6420256535\H,1.5911360578,-2.2289396479,0.1095
 879546\H,2.9528522726,-1.4278591965,-0.6936463186\H,2.8062554308,-1.34
 77641009,1.05880592\C,-3.9914753267,5.9968618355,-1.5708548619\H,-4.66
 11636072,6.4425231784,-0.826402448\H,-4.437458635,6.1518159854,-2.5609
 000116\H,-3.9531932113,4.9207014729,-1.3802355061\\Version=EM64L-G09Re
 vB.01\State=1-A\HF=-1387.3157066\RMSD=5.218e-09\RMSF=4.463e-06\Dipole=
 2.0371167,-0.9239504,0.4861311\Quadrupole=-3.8699158,3.6094654,0.26045
 03,-1.6757059,-6.4925698,-3.1910244\PG=C01 [X(C26H34O5)]\\@


 UNLESS WE CHANGE DIRECTIONS, WE WILL WIND UP WHERE WE ARE HEADED.
     -- CONFUCIUS
 Job cpu time:  0 days  5 hours 12 minutes 26.6 seconds.
 File lengths (MBytes):  RWF=    186 Int=      0 D2E=      0 Chk=     20 Scr=      1
 Normal termination of Gaussian 09 at Wed Mar 24 16:17:25 2021.
