 Entering Gaussian System, Link 0=g09
 Initial command:
 /public/software/g09/g09/l1.exe /tmp/Gau-16219.inp -scrdir=/tmp/
 Entering Link 1 = /public/software/g09/g09/l1.exe PID=     16220.
  
 Copyright (c) 1988,1990,1992,1993,1995,1998,2003,2009,2010,
            Gaussian, Inc.  All Rights Reserved.
  
 This is part of the Gaussian(R) 09 program.  It is based on
 the Gaussian(R) 03 system (copyright 2003, Gaussian, Inc.),
 the Gaussian(R) 98 system (copyright 1998, Gaussian, Inc.),
 the Gaussian(R) 94 system (copyright 1995, Gaussian, Inc.),
 the Gaussian 92(TM) system (copyright 1992, Gaussian, Inc.),
 the Gaussian 90(TM) system (copyright 1990, Gaussian, Inc.),
 the Gaussian 88(TM) system (copyright 1988, Gaussian, Inc.),
 the Gaussian 86(TM) system (copyright 1986, Carnegie Mellon
 University), and the Gaussian 82(TM) system (copyright 1983,
 Carnegie Mellon University). Gaussian is a federally registered
 trademark of Gaussian, Inc.
  
 This software contains proprietary and confidential information,
 including trade secrets, belonging to Gaussian, Inc.
  
 This software is provided under written license and may be
 used, copied, transmitted, or stored only in accord with that
 written license.
  
 The following legend is applicable only to US Government
 contracts under FAR:
  
                    RESTRICTED RIGHTS LEGEND
  
 Use, reproduction and disclosure by the US Government is
 subject to restrictions as set forth in subparagraphs (a)
 and (c) of the Commercial Computer Software - Restricted
 Rights clause in FAR 52.227-19.
  
 Gaussian, Inc.
 340 Quinnipiac St., Bldg. 40, Wallingford CT 06492
  
  
 ---------------------------------------------------------------
 Warning -- This program may not be used in any manner that
 competes with the business of Gaussian, Inc. or will provide
 assistance to any competitor of Gaussian, Inc.  The licensee
 of this program is prohibited from giving any competitor of
 Gaussian, Inc. access to this program.  By using this program,
 the user acknowledges that Gaussian, Inc. is engaged in the
 business of creating and licensing software in the field of
 computational chemistry and represents and warrants to the
 licensee that it is not a competitor of Gaussian, Inc. and that
 it will not use this program in any manner prohibited above.
 ---------------------------------------------------------------
  

 Cite this work as:
 Gaussian 09, Revision B.01,
 M. J. Frisch, G. W. Trucks, H. B. Schlegel, G. E. Scuseria, 
 M. A. Robb, J. R. Cheeseman, G. Scalmani, V. Barone, B. Mennucci, 
 G. A. Petersson, H. Nakatsuji, M. Caricato, X. Li, H. P. Hratchian, 
 A. F. Izmaylov, J. Bloino, G. Zheng, J. L. Sonnenberg, M. Hada, 
 M. Ehara, K. Toyota, R. Fukuda, J. Hasegawa, M. Ishida, T. Nakajima, 
 Y. Honda, O. Kitao, H. Nakai, T. Vreven, J. A. Montgomery, Jr., 
 J. E. Peralta, F. Ogliaro, M. Bearpark, J. J. Heyd, E. Brothers, 
 K. N. Kudin, V. N. Staroverov, T. Keith, R. Kobayashi, J. Normand, 
 K. Raghavachari, A. Rendell, J. C. Burant, S. S. Iyengar, J. Tomasi, 
 M. Cossi, N. Rega, J. M. Millam, M. Klene, J. E. Knox, J. B. Cross, 
 V. Bakken, C. Adamo, J. Jaramillo, R. Gomperts, R. E. Stratmann, 
 O. Yazyev, A. J. Austin, R. Cammi, C. Pomelli, J. W. Ochterski, 
 R. L. Martin, K. Morokuma, V. G. Zakrzewski, G. A. Voth, 
 P. Salvador, J. J. Dannenberg, S. Dapprich, A. D. Daniels, 
 O. Farkas, J. B. Foresman, J. V. Ortiz, J. Cioslowski, 
 and D. J. Fox, Gaussian, Inc., Wallingford CT, 2010.
 
 ******************************************
 Gaussian 09:  EM64L-G09RevB.01 12-Aug-2010
                24-Mar-2021 
 ******************************************
 %mem=600MW
 %nprocshared=10
 Will use up to   10 processors via shared memory.
 ---------------------------------------
 # opt rb3lyp/6-31g(d) geom=connectivity
 ---------------------------------------
 1/14=-1,18=20,19=15,26=3,38=1,57=2/1,3;
 2/9=110,12=2,17=6,18=5,40=1/2;
 3/5=1,6=6,7=1,11=2,16=1,25=1,30=1,71=1,74=-5,116=1/1,2,3;
 4//1;
 5/5=2,38=5/2;
 6/7=2,8=2,9=2,10=2,28=1/1;
 7//1,2,3,16;
 1/14=-1,18=20,19=15/3(2);
 2/9=110/2;
 99//99;
 2/9=110/2;
 3/5=1,6=6,7=1,11=2,16=1,25=1,30=1,71=1,74=-5,116=1/1,2,3;
 4/5=5,16=3/1;
 5/5=2,38=5/2;
 7//1,2,3,16;
 1/14=-1,18=20,19=15/3(-5);
 2/9=110/2;
 6/7=2,8=2,9=2,10=2,19=2,28=1/1;
 99/9=1/99;
 -------------------
 Title Card Required
 -------------------
 Symbolic Z-matrix:
 Charge =  0 Multiplicity = 1
 C                     0.        0.        0. 
 C                     1.3415    0.        0. 
 C                     2.1357    1.285     0. 
 C                     1.3357    2.5819   -0.3149 
 C                    -0.1581    2.4548   -0.6567 
 C                    -0.8315    1.2414    0.0158 
 C                     2.1456    3.2871   -1.4209 
 C                     1.7879    2.9028   -2.8142 
 C                     0.5719    2.4762   -3.1684 
 C                    -0.5017    2.4317   -2.1544 
 C                     0.3444    2.0153   -4.5554 
 O                     0.6478    0.8556   -4.8484 
 C                    -0.2869    2.9591   -5.5821 
 C                    -1.6698    2.4137   -5.9774 
 C                    -0.3416    4.4237   -5.146 
 O                    -1.6755    2.3993   -2.5304 
 C                     3.5555    2.7407   -1.37 
 C                     4.0594    2.9717   -2.8112 
 O                     2.8902    2.8532   -3.6625 
 C                     3.3127    1.27     -0.9925 
 O                     2.0967    4.6992   -1.3051 
 C                    -0.7206    3.7557   -0.0773 
 C                     0.1139    3.9633    1.1795 
 O                     1.4178    3.4394    0.8664 
 C                     0.2746    5.3691    1.7121 
 C                     1.2008    5.502     2.8946 
 C                    -0.3611    6.4524    1.2334 
 C                     4.6537    4.3747   -3.0134 
 C                     5.0966    1.9413   -3.2707 
 H                     4.1868    3.2368   -0.6239 
 H                     2.5684    1.3814    1.0069 
 C                     2.1111   -1.2913    0.0917 
 H                    -0.5435   -0.9422    0.0476 
 H                    -1.083     1.447     1.0633 
 H                    -1.788     1.0141   -0.4713 
 H                     0.3771    2.9134   -6.4564 
 H                    -1.5959    1.3394   -6.1883 
 H                    -2.3687    2.5123   -5.1386 
 H                     0.6429    4.7782   -4.8231 
 H                    -0.6553    5.0694   -5.9722 
 H                    -1.0432    4.5742   -4.3189 
 H                     3.056     0.6626   -1.869 
 H                     4.211     0.8279   -0.5468 
 H                     2.1641    4.8915   -0.3478 
 H                    -1.7931    3.7108    0.1432 
 H                    -0.5742    4.5712   -0.7966 
 H                    -0.2885    3.3437    1.9904 
 H                     1.2157    6.521     3.2961 
 H                     0.8829    4.8349    3.7027 
 H                     2.2265    5.2446    2.6117 
 H                    -1.0551    6.4075    0.4012 
 H                    -0.2084    7.435     1.6715 
 H                     4.9901    4.5046   -4.049 
 H                     5.5089    4.5432   -2.3509 
 H                     3.921     5.1683   -2.8453 
 H                     5.4494    2.1719   -4.2829 
 H                     5.9626    1.9211   -2.6013 
 H                     4.675     0.9335   -3.3353 
 H                     1.4519   -2.1535    0.2396 
 H                     2.6838   -1.4692   -0.8235 
 H                     2.8043   -1.2596    0.9386 
 C                    -2.2638    3.0945   -7.2024 
 H                    -1.5773    3.0419   -8.0531 
 H                    -3.1972    2.5998   -7.49 
 H                    -2.4953    4.1452   -7.0061 
 

 GradGradGradGradGradGradGradGradGradGradGradGradGradGradGradGradGradGrad
 Berny optimization.
 Initialization pass.
                           ----------------------------
                           !    Initial Parameters    !
                           ! (Angstroms and Degrees)  !
 --------------------------                            --------------------------
 ! Name  Definition              Value          Derivative Info.                !
 --------------------------------------------------------------------------------
 ! R1    R(1,2)                  1.3415         estimate D2E/DX2                !
 ! R2    R(1,6)                  1.4942         estimate D2E/DX2                !
 ! R3    R(1,33)                 1.0888         estimate D2E/DX2                !
 ! R4    R(2,3)                  1.5106         estimate D2E/DX2                !
 ! R5    R(2,32)                 1.506          estimate D2E/DX2                !
 ! R6    R(3,4)                  1.556          estimate D2E/DX2                !
 ! R7    R(3,20)                 1.5397         estimate D2E/DX2                !
 ! R8    R(3,31)                 1.1002         estimate D2E/DX2                !
 ! R9    R(4,5)                  1.5377         estimate D2E/DX2                !
 ! R10   R(4,7)                  1.5416         estimate D2E/DX2                !
 ! R11   R(4,24)                 1.462          estimate D2E/DX2                !
 ! R12   R(5,6)                  1.5421         estimate D2E/DX2                !
 ! R13   R(5,10)                 1.5368         estimate D2E/DX2                !
 ! R14   R(5,22)                 1.5312         estimate D2E/DX2                !
 ! R15   R(6,34)                 1.0967         estimate D2E/DX2                !
 ! R16   R(6,35)                 1.0972         estimate D2E/DX2                !
 ! R17   R(7,8)                  1.4889         estimate D2E/DX2                !
 ! R18   R(7,17)                 1.5129         estimate D2E/DX2                !
 ! R19   R(7,21)                 1.4177         estimate D2E/DX2                !
 ! R20   R(8,9)                  1.3365         estimate D2E/DX2                !
 ! R21   R(8,19)                 1.3918         estimate D2E/DX2                !
 ! R22   R(9,10)                 1.4774         estimate D2E/DX2                !
 ! R23   R(9,11)                 1.4792         estimate D2E/DX2                !
 ! R24   R(10,16)                1.233          estimate D2E/DX2                !
 ! R25   R(11,12)                1.234          estimate D2E/DX2                !
 ! R26   R(11,13)                1.5308         estimate D2E/DX2                !
 ! R27   R(13,14)                1.5382         estimate D2E/DX2                !
 ! R28   R(13,15)                1.5291         estimate D2E/DX2                !
 ! R29   R(13,36)                1.0988         estimate D2E/DX2                !
 ! R30   R(14,37)                1.0973         estimate D2E/DX2                !
 ! R31   R(14,38)                1.0963         estimate D2E/DX2                !
 ! R32   R(14,62)                1.5222         estimate D2E/DX2                !
 ! R33   R(15,39)                1.0951         estimate D2E/DX2                !
 ! R34   R(15,40)                1.0945         estimate D2E/DX2                !
 ! R35   R(15,41)                1.095          estimate D2E/DX2                !
 ! R36   R(17,18)                1.5441         estimate D2E/DX2                !
 ! R37   R(17,20)                1.5377         estimate D2E/DX2                !
 ! R38   R(17,30)                1.096          estimate D2E/DX2                !
 ! R39   R(18,19)                1.4511         estimate D2E/DX2                !
 ! R40   R(18,28)                1.537          estimate D2E/DX2                !
 ! R41   R(18,29)                1.5325         estimate D2E/DX2                !
 ! R42   R(20,42)                1.0969         estimate D2E/DX2                !
 ! R43   R(20,43)                1.0959         estimate D2E/DX2                !
 ! R44   R(21,44)                0.9787         estimate D2E/DX2                !
 ! R45   R(22,23)                1.5228         estimate D2E/DX2                !
 ! R46   R(22,45)                1.0959         estimate D2E/DX2                !
 ! R47   R(22,46)                1.0972         estimate D2E/DX2                !
 ! R48   R(23,24)                1.4397         estimate D2E/DX2                !
 ! R49   R(23,25)                1.5119         estimate D2E/DX2                !
 ! R50   R(23,47)                1.097          estimate D2E/DX2                !
 ! R51   R(25,26)                1.5079         estimate D2E/DX2                !
 ! R52   R(25,27)                1.3442         estimate D2E/DX2                !
 ! R53   R(26,48)                1.0953         estimate D2E/DX2                !
 ! R54   R(26,49)                1.095          estimate D2E/DX2                !
 ! R55   R(26,50)                1.0947         estimate D2E/DX2                !
 ! R56   R(27,51)                1.0845         estimate D2E/DX2                !
 ! R57   R(27,52)                1.0866         estimate D2E/DX2                !
 ! R58   R(28,53)                1.0966         estimate D2E/DX2                !
 ! R59   R(28,54)                1.0948         estimate D2E/DX2                !
 ! R60   R(28,55)                1.0931         estimate D2E/DX2                !
 ! R61   R(29,56)                1.0964         estimate D2E/DX2                !
 ! R62   R(29,57)                1.0947         estimate D2E/DX2                !
 ! R63   R(29,58)                1.0943         estimate D2E/DX2                !
 ! R64   R(32,59)                1.0954         estimate D2E/DX2                !
 ! R65   R(32,60)                1.0942         estimate D2E/DX2                !
 ! R66   R(32,61)                1.0949         estimate D2E/DX2                !
 ! R67   R(62,63)                1.0944         estimate D2E/DX2                !
 ! R68   R(62,64)                1.0948         estimate D2E/DX2                !
 ! R69   R(62,65)                1.0937         estimate D2E/DX2                !
 ! A1    A(2,1,6)              123.8124         estimate D2E/DX2                !
 ! A2    A(2,1,33)             119.9465         estimate D2E/DX2                !
 ! A3    A(6,1,33)             116.1493         estimate D2E/DX2                !
 ! A4    A(1,2,3)              121.7183         estimate D2E/DX2                !
 ! A5    A(1,2,32)             120.7311         estimate D2E/DX2                !
 ! A6    A(3,2,32)             117.4319         estimate D2E/DX2                !
 ! A7    A(2,3,4)              116.0206         estimate D2E/DX2                !
 ! A8    A(2,3,20)             113.1796         estimate D2E/DX2                !
 ! A9    A(2,3,31)             106.3386         estimate D2E/DX2                !
 ! A10   A(4,3,20)             105.7057         estimate D2E/DX2                !
 ! A11   A(4,3,31)             108.3248         estimate D2E/DX2                !
 ! A12   A(20,3,31)            106.8676         estimate D2E/DX2                !
 ! A13   A(3,4,5)              118.3962         estimate D2E/DX2                !
 ! A14   A(3,4,7)              104.8543         estimate D2E/DX2                !
 ! A15   A(3,4,24)             107.2452         estimate D2E/DX2                !
 ! A16   A(5,4,7)              112.8746         estimate D2E/DX2                !
 ! A17   A(5,4,24)             106.4176         estimate D2E/DX2                !
 ! A18   A(7,4,24)             106.3726         estimate D2E/DX2                !
 ! A19   A(4,5,6)              113.0991         estimate D2E/DX2                !
 ! A20   A(4,5,10)             115.7904         estimate D2E/DX2                !
 ! A21   A(4,5,22)             101.6859         estimate D2E/DX2                !
 ! A22   A(6,5,10)             108.3936         estimate D2E/DX2                !
 ! A23   A(6,5,22)             110.0646         estimate D2E/DX2                !
 ! A24   A(10,5,22)            107.4225         estimate D2E/DX2                !
 ! A25   A(1,6,5)              113.9602         estimate D2E/DX2                !
 ! A26   A(1,6,34)             107.0652         estimate D2E/DX2                !
 ! A27   A(1,6,35)             107.9576         estimate D2E/DX2                !
 ! A28   A(5,6,34)             111.6635         estimate D2E/DX2                !
 ! A29   A(5,6,35)             110.4927         estimate D2E/DX2                !
 ! A30   A(34,6,35)            105.2453         estimate D2E/DX2                !
 ! A31   A(4,7,8)              115.2823         estimate D2E/DX2                !
 ! A32   A(4,7,17)             107.4722         estimate D2E/DX2                !
 ! A33   A(4,7,21)             112.2672         estimate D2E/DX2                !
 ! A34   A(8,7,17)              99.3315         estimate D2E/DX2                !
 ! A35   A(8,7,21)             108.98           estimate D2E/DX2                !
 ! A36   A(17,7,21)            112.9002         estimate D2E/DX2                !
 ! A37   A(7,8,9)              123.2972         estimate D2E/DX2                !
 ! A38   A(7,8,19)             112.9096         estimate D2E/DX2                !
 ! A39   A(9,8,19)             123.2094         estimate D2E/DX2                !
 ! A40   A(8,9,10)             119.2678         estimate D2E/DX2                !
 ! A41   A(8,9,11)             119.2038         estimate D2E/DX2                !
 ! A42   A(10,9,11)            121.4942         estimate D2E/DX2                !
 ! A43   A(5,10,9)             120.3944         estimate D2E/DX2                !
 ! A44   A(5,10,16)            120.6935         estimate D2E/DX2                !
 ! A45   A(9,10,16)            118.9002         estimate D2E/DX2                !
 ! A46   A(9,11,12)            118.5322         estimate D2E/DX2                !
 ! A47   A(9,11,13)            120.0141         estimate D2E/DX2                !
 ! A48   A(12,11,13)           121.4362         estimate D2E/DX2                !
 ! A49   A(11,13,14)           108.9357         estimate D2E/DX2                !
 ! A50   A(11,13,15)           114.4558         estimate D2E/DX2                !
 ! A51   A(11,13,36)           104.9991         estimate D2E/DX2                !
 ! A52   A(14,13,15)           112.3791         estimate D2E/DX2                !
 ! A53   A(14,13,36)           108.9078         estimate D2E/DX2                !
 ! A54   A(15,13,36)           106.7608         estimate D2E/DX2                !
 ! A55   A(13,14,37)           109.6321         estimate D2E/DX2                !
 ! A56   A(13,14,38)           110.1596         estimate D2E/DX2                !
 ! A57   A(13,14,62)           113.5198         estimate D2E/DX2                !
 ! A58   A(37,14,38)           106.1442         estimate D2E/DX2                !
 ! A59   A(37,14,62)           108.0285         estimate D2E/DX2                !
 ! A60   A(38,14,62)           109.0724         estimate D2E/DX2                !
 ! A61   A(13,15,39)           111.223          estimate D2E/DX2                !
 ! A62   A(13,15,40)           111.1015         estimate D2E/DX2                !
 ! A63   A(13,15,41)           111.715          estimate D2E/DX2                !
 ! A64   A(39,15,40)           106.8148         estimate D2E/DX2                !
 ! A65   A(39,15,41)           107.9882         estimate D2E/DX2                !
 ! A66   A(40,15,41)           107.7857         estimate D2E/DX2                !
 ! A67   A(7,17,18)            102.6316         estimate D2E/DX2                !
 ! A68   A(7,17,20)            101.9194         estimate D2E/DX2                !
 ! A69   A(7,17,30)            113.3401         estimate D2E/DX2                !
 ! A70   A(18,17,20)           115.0715         estimate D2E/DX2                !
 ! A71   A(18,17,30)           112.3132         estimate D2E/DX2                !
 ! A72   A(20,17,30)           110.9004         estimate D2E/DX2                !
 ! A73   A(17,18,19)           105.8067         estimate D2E/DX2                !
 ! A74   A(17,18,28)           112.6756         estimate D2E/DX2                !
 ! A75   A(17,18,29)           113.5857         estimate D2E/DX2                !
 ! A76   A(19,18,28)           107.9928         estimate D2E/DX2                !
 ! A77   A(19,18,29)           108.3307         estimate D2E/DX2                !
 ! A78   A(28,18,29)           108.2156         estimate D2E/DX2                !
 ! A79   A(8,19,18)            106.1201         estimate D2E/DX2                !
 ! A80   A(3,20,17)            105.643          estimate D2E/DX2                !
 ! A81   A(3,20,42)            109.9747         estimate D2E/DX2                !
 ! A82   A(3,20,43)            111.6151         estimate D2E/DX2                !
 ! A83   A(17,20,42)           111.7417         estimate D2E/DX2                !
 ! A84   A(17,20,43)           110.8702         estimate D2E/DX2                !
 ! A85   A(42,20,43)           107.0633         estimate D2E/DX2                !
 ! A86   A(7,21,44)            105.8559         estimate D2E/DX2                !
 ! A87   A(5,22,23)            103.1092         estimate D2E/DX2                !
 ! A88   A(5,22,45)            113.6325         estimate D2E/DX2                !
 ! A89   A(5,22,46)            109.5353         estimate D2E/DX2                !
 ! A90   A(23,22,45)           112.076          estimate D2E/DX2                !
 ! A91   A(23,22,46)           111.5063         estimate D2E/DX2                !
 ! A92   A(45,22,46)           107.0346         estimate D2E/DX2                !
 ! A93   A(22,23,24)           105.4986         estimate D2E/DX2                !
 ! A94   A(22,23,25)           118.4077         estimate D2E/DX2                !
 ! A95   A(22,23,47)           109.3934         estimate D2E/DX2                !
 ! A96   A(24,23,25)           108.5853         estimate D2E/DX2                !
 ! A97   A(24,23,47)           106.7054         estimate D2E/DX2                !
 ! A98   A(25,23,47)           107.6845         estimate D2E/DX2                !
 ! A99   A(4,24,23)            109.7731         estimate D2E/DX2                !
 ! A100  A(23,25,26)           115.0553         estimate D2E/DX2                !
 ! A101  A(23,25,27)           125.0054         estimate D2E/DX2                !
 ! A102  A(26,25,27)           119.916          estimate D2E/DX2                !
 ! A103  A(25,26,48)           112.1971         estimate D2E/DX2                !
 ! A104  A(25,26,49)           110.2857         estimate D2E/DX2                !
 ! A105  A(25,26,50)           110.6178         estimate D2E/DX2                !
 ! A106  A(48,26,49)           107.4689         estimate D2E/DX2                !
 ! A107  A(48,26,50)           107.5013         estimate D2E/DX2                !
 ! A108  A(49,26,50)           108.6315         estimate D2E/DX2                !
 ! A109  A(25,27,51)           122.8565         estimate D2E/DX2                !
 ! A110  A(25,27,52)           121.247          estimate D2E/DX2                !
 ! A111  A(51,27,52)           115.8956         estimate D2E/DX2                !
 ! A112  A(18,28,53)           110.5471         estimate D2E/DX2                !
 ! A113  A(18,28,54)           111.2785         estimate D2E/DX2                !
 ! A114  A(18,28,55)           112.5375         estimate D2E/DX2                !
 ! A115  A(53,28,54)           108.2765         estimate D2E/DX2                !
 ! A116  A(53,28,55)           105.358          estimate D2E/DX2                !
 ! A117  A(54,28,55)           108.5895         estimate D2E/DX2                !
 ! A118  A(18,29,56)           110.6804         estimate D2E/DX2                !
 ! A119  A(18,29,57)           111.3735         estimate D2E/DX2                !
 ! A120  A(18,29,58)           112.0951         estimate D2E/DX2                !
 ! A121  A(56,29,57)           108.2903         estimate D2E/DX2                !
 ! A122  A(56,29,58)           105.2571         estimate D2E/DX2                !
 ! A123  A(57,29,58)           108.8965         estimate D2E/DX2                !
 ! A124  A(2,32,59)            112.0611         estimate D2E/DX2                !
 ! A125  A(2,32,60)            110.8512         estimate D2E/DX2                !
 ! A126  A(2,32,61)            110.2311         estimate D2E/DX2                !
 ! A127  A(59,32,60)           107.4547         estimate D2E/DX2                !
 ! A128  A(59,32,61)           107.4198         estimate D2E/DX2                !
 ! A129  A(60,32,61)           108.6815         estimate D2E/DX2                !
 ! A130  A(14,62,63)           111.0562         estimate D2E/DX2                !
 ! A131  A(14,62,64)           109.9991         estimate D2E/DX2                !
 ! A132  A(14,62,65)           111.5828         estimate D2E/DX2                !
 ! A133  A(63,62,64)           107.9914         estimate D2E/DX2                !
 ! A134  A(63,62,65)           108.5705         estimate D2E/DX2                !
 ! A135  A(64,62,65)           107.5047         estimate D2E/DX2                !
 ! D1    D(6,1,2,3)             -0.7292         estimate D2E/DX2                !
 ! D2    D(6,1,2,32)           175.2088         estimate D2E/DX2                !
 ! D3    D(33,1,2,3)          -177.1079         estimate D2E/DX2                !
 ! D4    D(33,1,2,32)           -1.1698         estimate D2E/DX2                !
 ! D5    D(2,1,6,5)             29.2182         estimate D2E/DX2                !
 ! D6    D(2,1,6,34)           -94.7678         estimate D2E/DX2                !
 ! D7    D(2,1,6,35)           152.3624         estimate D2E/DX2                !
 ! D8    D(33,1,6,5)          -154.2773         estimate D2E/DX2                !
 ! D9    D(33,1,6,34)           81.7368         estimate D2E/DX2                !
 ! D10   D(33,1,6,35)          -31.1331         estimate D2E/DX2                !
 ! D11   D(1,2,3,4)            -13.015          estimate D2E/DX2                !
 ! D12   D(1,2,3,20)          -135.475          estimate D2E/DX2                !
 ! D13   D(1,2,3,31)           107.4957         estimate D2E/DX2                !
 ! D14   D(32,2,3,4)           170.9187         estimate D2E/DX2                !
 ! D15   D(32,2,3,20)           48.4587         estimate D2E/DX2                !
 ! D16   D(32,2,3,31)          -68.5706         estimate D2E/DX2                !
 ! D17   D(1,2,32,59)           -4.8854         estimate D2E/DX2                !
 ! D18   D(1,2,32,60)          115.1603         estimate D2E/DX2                !
 ! D19   D(1,2,32,61)         -124.4642         estimate D2E/DX2                !
 ! D20   D(3,2,32,59)          171.2218         estimate D2E/DX2                !
 ! D21   D(3,2,32,60)          -68.7324         estimate D2E/DX2                !
 ! D22   D(3,2,32,61)           51.6431         estimate D2E/DX2                !
 ! D23   D(2,3,4,5)             -2.6229         estimate D2E/DX2                !
 ! D24   D(2,3,4,7)           -129.5318         estimate D2E/DX2                !
 ! D25   D(2,3,4,24)           117.6576         estimate D2E/DX2                !
 ! D26   D(20,3,4,5)           123.6957         estimate D2E/DX2                !
 ! D27   D(20,3,4,7)            -3.2133         estimate D2E/DX2                !
 ! D28   D(20,3,4,24)         -116.0239         estimate D2E/DX2                !
 ! D29   D(31,3,4,5)          -122.0588         estimate D2E/DX2                !
 ! D30   D(31,3,4,7)           111.0323         estimate D2E/DX2                !
 ! D31   D(31,3,4,24)           -1.7783         estimate D2E/DX2                !
 ! D32   D(2,3,20,17)          153.2485         estimate D2E/DX2                !
 ! D33   D(2,3,20,42)           32.5134         estimate D2E/DX2                !
 ! D34   D(2,3,20,43)          -86.1617         estimate D2E/DX2                !
 ! D35   D(4,3,20,17)           25.2146         estimate D2E/DX2                !
 ! D36   D(4,3,20,42)          -95.5204         estimate D2E/DX2                !
 ! D37   D(4,3,20,43)          145.8044         estimate D2E/DX2                !
 ! D38   D(31,3,20,17)         -90.0335         estimate D2E/DX2                !
 ! D39   D(31,3,20,42)         149.2314         estimate D2E/DX2                !
 ! D40   D(31,3,20,43)          30.5563         estimate D2E/DX2                !
 ! D41   D(3,4,5,6)             29.2263         estimate D2E/DX2                !
 ! D42   D(3,4,5,10)           -96.7247         estimate D2E/DX2                !
 ! D43   D(3,4,5,22)           147.2019         estimate D2E/DX2                !
 ! D44   D(7,4,5,6)            152.2088         estimate D2E/DX2                !
 ! D45   D(7,4,5,10)            26.2578         estimate D2E/DX2                !
 ! D46   D(7,4,5,22)           -89.8157         estimate D2E/DX2                !
 ! D47   D(24,4,5,6)           -91.4793         estimate D2E/DX2                !
 ! D48   D(24,4,5,10)          142.5697         estimate D2E/DX2                !
 ! D49   D(24,4,5,22)           26.4963         estimate D2E/DX2                !
 ! D50   D(3,4,7,8)             89.2319         estimate D2E/DX2                !
 ! D51   D(3,4,7,17)           -20.442          estimate D2E/DX2                !
 ! D52   D(3,4,7,21)          -145.1717         estimate D2E/DX2                !
 ! D53   D(5,4,7,8)            -41.0013         estimate D2E/DX2                !
 ! D54   D(5,4,7,17)          -150.6752         estimate D2E/DX2                !
 ! D55   D(5,4,7,21)            84.5951         estimate D2E/DX2                !
 ! D56   D(24,4,7,8)          -157.34           estimate D2E/DX2                !
 ! D57   D(24,4,7,17)           92.986          estimate D2E/DX2                !
 ! D58   D(24,4,7,21)          -31.7437         estimate D2E/DX2                !
 ! D59   D(3,4,24,23)         -134.0304         estimate D2E/DX2                !
 ! D60   D(5,4,24,23)           -6.3988         estimate D2E/DX2                !
 ! D61   D(7,4,24,23)          114.194          estimate D2E/DX2                !
 ! D62   D(4,5,6,1)            -41.5663         estimate D2E/DX2                !
 ! D63   D(4,5,6,34)            79.904          estimate D2E/DX2                !
 ! D64   D(4,5,6,35)          -163.3199         estimate D2E/DX2                !
 ! D65   D(10,5,6,1)            88.2477         estimate D2E/DX2                !
 ! D66   D(10,5,6,34)         -150.2819         estimate D2E/DX2                !
 ! D67   D(10,5,6,35)          -33.5059         estimate D2E/DX2                !
 ! D68   D(22,5,6,1)          -154.5341         estimate D2E/DX2                !
 ! D69   D(22,5,6,34)          -33.0637         estimate D2E/DX2                !
 ! D70   D(22,5,6,35)           83.7123         estimate D2E/DX2                !
 ! D71   D(4,5,10,9)             2.3431         estimate D2E/DX2                !
 ! D72   D(4,5,10,16)         -176.3899         estimate D2E/DX2                !
 ! D73   D(6,5,10,9)          -125.9633         estimate D2E/DX2                !
 ! D74   D(6,5,10,16)           55.3038         estimate D2E/DX2                !
 ! D75   D(22,5,10,9)          115.1364         estimate D2E/DX2                !
 ! D76   D(22,5,10,16)         -63.5965         estimate D2E/DX2                !
 ! D77   D(4,5,22,23)          -35.8552         estimate D2E/DX2                !
 ! D78   D(4,5,22,45)         -157.3968         estimate D2E/DX2                !
 ! D79   D(4,5,22,46)           82.9631         estimate D2E/DX2                !
 ! D80   D(6,5,22,23)           84.2811         estimate D2E/DX2                !
 ! D81   D(6,5,22,45)          -37.2605         estimate D2E/DX2                !
 ! D82   D(6,5,22,46)         -156.9006         estimate D2E/DX2                !
 ! D83   D(10,5,22,23)        -157.8984         estimate D2E/DX2                !
 ! D84   D(10,5,22,45)          80.56           estimate D2E/DX2                !
 ! D85   D(10,5,22,46)         -39.0801         estimate D2E/DX2                !
 ! D86   D(4,7,8,9)             27.8307         estimate D2E/DX2                !
 ! D87   D(4,7,8,19)          -143.6489         estimate D2E/DX2                !
 ! D88   D(17,7,8,9)           142.2943         estimate D2E/DX2                !
 ! D89   D(17,7,8,19)          -29.1853         estimate D2E/DX2                !
 ! D90   D(21,7,8,9)           -99.4418         estimate D2E/DX2                !
 ! D91   D(21,7,8,19)           89.0785         estimate D2E/DX2                !
 ! D92   D(4,7,17,18)          155.0398         estimate D2E/DX2                !
 ! D93   D(4,7,17,20)           35.6246         estimate D2E/DX2                !
 ! D94   D(4,7,17,30)          -83.5968         estimate D2E/DX2                !
 ! D95   D(8,7,17,18)           34.6777         estimate D2E/DX2                !
 ! D96   D(8,7,17,20)          -84.7375         estimate D2E/DX2                !
 ! D97   D(8,7,17,30)          156.0411         estimate D2E/DX2                !
 ! D98   D(21,7,17,18)         -80.613          estimate D2E/DX2                !
 ! D99   D(21,7,17,20)         159.9718         estimate D2E/DX2                !
 ! D100  D(21,7,17,30)          40.7504         estimate D2E/DX2                !
 ! D101  D(4,7,21,44)           40.2745         estimate D2E/DX2                !
 ! D102  D(8,7,21,44)          169.2402         estimate D2E/DX2                !
 ! D103  D(17,7,21,44)         -81.4045         estimate D2E/DX2                !
 ! D104  D(7,8,9,10)             2.7572         estimate D2E/DX2                !
 ! D105  D(7,8,9,11)          -175.1457         estimate D2E/DX2                !
 ! D106  D(19,8,9,10)          173.3694         estimate D2E/DX2                !
 ! D107  D(19,8,9,11)           -4.5335         estimate D2E/DX2                !
 ! D108  D(7,8,19,18)            9.9135         estimate D2E/DX2                !
 ! D109  D(9,8,19,18)         -161.5748         estimate D2E/DX2                !
 ! D110  D(8,9,10,5)           -18.4259         estimate D2E/DX2                !
 ! D111  D(8,9,10,16)          160.3295         estimate D2E/DX2                !
 ! D112  D(11,9,10,5)          159.4273         estimate D2E/DX2                !
 ! D113  D(11,9,10,16)         -21.8173         estimate D2E/DX2                !
 ! D114  D(8,9,11,12)           82.9704         estimate D2E/DX2                !
 ! D115  D(8,9,11,13)          -98.5303         estimate D2E/DX2                !
 ! D116  D(10,9,11,12)         -94.8842         estimate D2E/DX2                !
 ! D117  D(10,9,11,13)          83.6151         estimate D2E/DX2                !
 ! D118  D(9,11,13,14)        -113.5616         estimate D2E/DX2                !
 ! D119  D(9,11,13,15)          13.1807         estimate D2E/DX2                !
 ! D120  D(9,11,13,36)         129.9133         estimate D2E/DX2                !
 ! D121  D(12,11,13,14)         64.8931         estimate D2E/DX2                !
 ! D122  D(12,11,13,15)       -168.3646         estimate D2E/DX2                !
 ! D123  D(12,11,13,36)        -51.632          estimate D2E/DX2                !
 ! D124  D(11,13,14,37)        -46.6548         estimate D2E/DX2                !
 ! D125  D(11,13,14,38)         69.797          estimate D2E/DX2                !
 ! D126  D(11,13,14,62)       -167.5596         estimate D2E/DX2                !
 ! D127  D(15,13,14,37)       -174.5764         estimate D2E/DX2                !
 ! D128  D(15,13,14,38)        -58.1246         estimate D2E/DX2                !
 ! D129  D(15,13,14,62)         64.5187         estimate D2E/DX2                !
 ! D130  D(36,13,14,37)         67.3448         estimate D2E/DX2                !
 ! D131  D(36,13,14,38)       -176.2035         estimate D2E/DX2                !
 ! D132  D(36,13,14,62)        -53.5601         estimate D2E/DX2                !
 ! D133  D(11,13,15,39)         52.3096         estimate D2E/DX2                !
 ! D134  D(11,13,15,40)        171.1576         estimate D2E/DX2                !
 ! D135  D(11,13,15,41)        -68.4376         estimate D2E/DX2                !
 ! D136  D(14,13,15,39)        177.2543         estimate D2E/DX2                !
 ! D137  D(14,13,15,40)        -63.8977         estimate D2E/DX2                !
 ! D138  D(14,13,15,41)         56.5072         estimate D2E/DX2                !
 ! D139  D(36,13,15,39)        -63.4055         estimate D2E/DX2                !
 ! D140  D(36,13,15,40)         55.4425         estimate D2E/DX2                !
 ! D141  D(36,13,15,41)        175.8473         estimate D2E/DX2                !
 ! D142  D(13,14,62,63)         55.0239         estimate D2E/DX2                !
 ! D143  D(13,14,62,64)        174.5179         estimate D2E/DX2                !
 ! D144  D(13,14,62,65)        -66.2602         estimate D2E/DX2                !
 ! D145  D(37,14,62,63)        -66.7785         estimate D2E/DX2                !
 ! D146  D(37,14,62,64)         52.7155         estimate D2E/DX2                !
 ! D147  D(37,14,62,65)        171.9374         estimate D2E/DX2                !
 ! D148  D(38,14,62,63)        178.2653         estimate D2E/DX2                !
 ! D149  D(38,14,62,64)        -62.2407         estimate D2E/DX2                !
 ! D150  D(38,14,62,65)         56.9812         estimate D2E/DX2                !
 ! D151  D(7,17,18,19)         -31.4864         estimate D2E/DX2                !
 ! D152  D(7,17,18,28)          86.3023         estimate D2E/DX2                !
 ! D153  D(7,17,18,29)        -150.1884         estimate D2E/DX2                !
 ! D154  D(20,17,18,19)         78.3002         estimate D2E/DX2                !
 ! D155  D(20,17,18,28)       -163.9111         estimate D2E/DX2                !
 ! D156  D(20,17,18,29)        -40.4017         estimate D2E/DX2                !
 ! D157  D(30,17,18,19)       -153.5493         estimate D2E/DX2                !
 ! D158  D(30,17,18,28)        -35.7606         estimate D2E/DX2                !
 ! D159  D(30,17,18,29)         87.7487         estimate D2E/DX2                !
 ! D160  D(7,17,20,3)          -37.2583         estimate D2E/DX2                !
 ! D161  D(7,17,20,42)          82.3178         estimate D2E/DX2                !
 ! D162  D(7,17,20,43)        -158.3333         estimate D2E/DX2                !
 ! D163  D(18,17,20,3)        -147.4707         estimate D2E/DX2                !
 ! D164  D(18,17,20,42)        -27.8945         estimate D2E/DX2                !
 ! D165  D(18,17,20,43)         91.4544         estimate D2E/DX2                !
 ! D166  D(30,17,20,3)          83.6754         estimate D2E/DX2                !
 ! D167  D(30,17,20,42)       -156.7484         estimate D2E/DX2                !
 ! D168  D(30,17,20,43)        -37.3995         estimate D2E/DX2                !
 ! D169  D(17,18,19,8)          13.8143         estimate D2E/DX2                !
 ! D170  D(28,18,19,8)        -107.0636         estimate D2E/DX2                !
 ! D171  D(29,18,19,8)         135.9461         estimate D2E/DX2                !
 ! D172  D(17,18,28,53)       -179.4011         estimate D2E/DX2                !
 ! D173  D(17,18,28,54)         60.2419         estimate D2E/DX2                !
 ! D174  D(17,18,28,55)        -61.8995         estimate D2E/DX2                !
 ! D175  D(19,18,28,53)        -62.9081         estimate D2E/DX2                !
 ! D176  D(19,18,28,54)        176.7349         estimate D2E/DX2                !
 ! D177  D(19,18,28,55)         54.5935         estimate D2E/DX2                !
 ! D178  D(29,18,28,53)         54.1567         estimate D2E/DX2                !
 ! D179  D(29,18,28,54)        -66.2003         estimate D2E/DX2                !
 ! D180  D(29,18,28,55)        171.6583         estimate D2E/DX2                !
 ! D181  D(17,18,29,56)       -177.8206         estimate D2E/DX2                !
 ! D182  D(17,18,29,57)        -57.2932         estimate D2E/DX2                !
 ! D183  D(17,18,29,58)         64.9979         estimate D2E/DX2                !
 ! D184  D(19,18,29,56)         64.9368         estimate D2E/DX2                !
 ! D185  D(19,18,29,57)       -174.5357         estimate D2E/DX2                !
 ! D186  D(19,18,29,58)        -52.2446         estimate D2E/DX2                !
 ! D187  D(28,18,29,56)        -51.91           estimate D2E/DX2                !
 ! D188  D(28,18,29,57)         68.6174         estimate D2E/DX2                !
 ! D189  D(28,18,29,58)       -169.0915         estimate D2E/DX2                !
 ! D190  D(5,22,23,24)          33.258          estimate D2E/DX2                !
 ! D191  D(5,22,23,25)         154.994          estimate D2E/DX2                !
 ! D192  D(5,22,23,47)         -81.1894         estimate D2E/DX2                !
 ! D193  D(45,22,23,24)        155.8469         estimate D2E/DX2                !
 ! D194  D(45,22,23,25)        -82.4172         estimate D2E/DX2                !
 ! D195  D(45,22,23,47)         41.3995         estimate D2E/DX2                !
 ! D196  D(46,22,23,24)        -84.1801         estimate D2E/DX2                !
 ! D197  D(46,22,23,25)         37.5558         estimate D2E/DX2                !
 ! D198  D(46,22,23,47)        161.3725         estimate D2E/DX2                !
 ! D199  D(22,23,24,4)         -16.834          estimate D2E/DX2                !
 ! D200  D(25,23,24,4)        -144.7205         estimate D2E/DX2                !
 ! D201  D(47,23,24,4)          99.4607         estimate D2E/DX2                !
 ! D202  D(22,23,25,26)       -175.4708         estimate D2E/DX2                !
 ! D203  D(22,23,25,27)          6.2975         estimate D2E/DX2                !
 ! D204  D(24,23,25,26)        -55.3132         estimate D2E/DX2                !
 ! D205  D(24,23,25,27)        126.4552         estimate D2E/DX2                !
 ! D206  D(47,23,25,26)         59.8704         estimate D2E/DX2                !
 ! D207  D(47,23,25,27)       -118.3613         estimate D2E/DX2                !
 ! D208  D(23,25,26,48)       -175.03           estimate D2E/DX2                !
 ! D209  D(23,25,26,49)        -55.263          estimate D2E/DX2                !
 ! D210  D(23,25,26,50)         64.9343         estimate D2E/DX2                !
 ! D211  D(27,25,26,48)          3.2989         estimate D2E/DX2                !
 ! D212  D(27,25,26,49)        123.0659         estimate D2E/DX2                !
 ! D213  D(27,25,26,50)       -116.7368         estimate D2E/DX2                !
 ! D214  D(23,25,27,51)         -0.3548         estimate D2E/DX2                !
 ! D215  D(23,25,27,52)        179.2654         estimate D2E/DX2                !
 ! D216  D(26,25,27,51)       -178.5066         estimate D2E/DX2                !
 ! D217  D(26,25,27,52)          1.1136         estimate D2E/DX2                !
 --------------------------------------------------------------------------------
 Trust Radius=3.00D-01 FncErr=1.00D-07 GrdErr=1.00D-06
 Number of steps in this run=    390 maximum allowed number of steps=    390.
 GradGradGradGradGradGradGradGradGradGradGradGradGradGradGradGradGradGrad

 Stoichiometry    C26H34O5
 Framework group  C1[X(C26H34O5)]
 Deg. of freedom   189
 Full point group                 C1      NOp   1
 Largest Abelian subgroup         C1      NOp   1
 Largest concise Abelian subgroup C1      NOp   1
                         Standard orientation:                         
 ---------------------------------------------------------------------
 Center     Atomic      Atomic             Coordinates (Angstroms)
 Number     Number       Type             X           Y           Z
 ---------------------------------------------------------------------
      1          6           0       -1.141180    0.000653    3.280880
      2          6           0       -1.452186    1.188316    2.740183
      3          6           0       -1.801215    1.327894    1.277078
      4          6           0       -1.478537    0.099518    0.378144
      5          6           0       -0.786330   -1.114434    1.019696
      6          6           0       -1.122955   -1.282361    2.515205
      7          6           0       -0.690335    0.678138   -0.813669
      8          6           0        0.785404    0.745247   -0.627625
      9          6           0        1.463599   -0.089498    0.165692
     10          6           0        0.740454   -1.177121    0.856296
     11          6           0        2.912908    0.125500    0.368751
     12          8           0        3.273922    0.947968    1.214930
     13          6           0        3.928144   -0.688701   -0.437341
     14          6           0        4.699909   -1.612757    0.520069
     15          6           0        3.332361   -1.446813   -1.624159
     16          8           0        1.379299   -2.144017    1.277273
     17          6           0       -0.996159    2.158122   -0.884958
     18          6           0        0.247057    2.725582   -1.603803
     19          8           0        1.354193    1.873947   -1.210421
     20          6           0       -1.115138    2.529832    0.602352
     21          8           0       -0.971876   -0.002331   -2.025083
     22          6           0       -1.381558   -2.272461    0.214010
     23          6           0       -2.813538   -1.818866   -0.036424
     24          8           0       -2.746687   -0.386360   -0.163368
     25          6           0       -3.544764   -2.375400   -1.236983
     26          6           0       -4.916773   -1.796382   -1.473927
     27          6           0       -3.074820   -3.339336   -2.047407
     28          6           0        0.124200    2.667672   -3.134829
     29          6           0        0.581905    4.166719   -1.204242
     30          1           0       -1.925610    2.384194   -1.420058
     31          1           0       -2.884807    1.513141    1.233702
     32          6           0       -1.553313    2.421804    3.598337
     33          1           0       -0.940162   -0.074666    4.348269
     34          1           0       -2.101089   -1.757017    2.659207
     35          1           0       -0.402348   -1.954238    2.998041
     36          1           0        4.623117    0.054268   -0.852545
     37          1           0        5.024004   -1.043607    1.400462
     38          1           0        4.040470   -2.404339    0.894644
     39          1           0        2.747269   -0.780564   -2.266775
     40          1           0        4.118889   -1.880076   -2.249937
     41          1           0        2.678168   -2.261739   -1.297180
     42          1           0       -0.132509    2.704360    1.057395
     43          1           0       -1.696427    3.450149    0.729487
     44          1           0       -1.935259   -0.174889   -2.017203
     45          1           0       -1.339771   -3.236346    0.733695
     46          1           0       -0.826565   -2.389368   -0.725236
     47          1           0       -3.422647   -2.028667    0.851472
     48          1           0       -5.438145   -2.292109   -2.299889
     49          1           0       -5.536676   -1.910109   -0.578441
     50          1           0       -4.848746   -0.731714   -1.719290
     51          1           0       -2.105714   -3.805493   -1.906912
     52          1           0       -3.658759   -3.702756   -2.888652
     53          1           0        1.028122    3.068518   -3.608913
     54          1           0       -0.734506    3.248555   -3.486772
     55          1           0        0.030131    1.644986   -3.509223
     56          1           0        1.446538    4.534306   -1.769471
     57          1           0       -0.261742    4.838853   -1.391206
     58          1           0        0.871270    4.245425   -0.151791
     59          1           0       -1.432453    2.193473    4.662792
     60          1           0       -0.780770    3.148239    3.328717
     61          1           0       -2.534715    2.890771    3.473070
     62          6           0        5.931461   -2.247959   -0.109811
     63          1           0        6.599347   -1.485690   -0.522866
     64          1           0        6.488660   -2.812935    0.644516
     65          1           0        5.661010   -2.944031   -0.908833
 ---------------------------------------------------------------------
 Rotational constants (GHZ):      0.1895291      0.1301786      0.1179112
 Standard basis: 6-31G(d) (6D, 7F)
 There are   533 symmetry adapted basis functions of A   symmetry.
 Integral buffers will be    131072 words long.
 Raffenetti 2 integral format.
 Two-electron integral symmetry is turned on.
   533 basis functions,  1004 primitive gaussians,   533 cartesian basis functions
   115 alpha electrons      115 beta electrons
       nuclear repulsion energy      3522.9285265787 Hartrees.
 NAtoms=   65 NActive=   65 NUniq=   65 SFac= 1.00D+00 NAtFMM=   50 NAOKFM=T Big=T
 One-electron integrals computed using PRISM.
 NBasis=   533 RedAO= T  NBF=   533
 NBsUse=   533 1.00D-06 NBFU=   533
 Harris functional with IExCor=  402 diagonalized for initial guess.
 ExpMin= 1.61D-01 ExpMax= 5.48D+03 ExpMxC= 8.25D+02 IAcc=1 IRadAn=         1 AccDes= 0.00D+00
 HarFok:  IExCor=  402 AccDes= 0.00D+00 IRadAn=         1 IDoV= 1
 ScaDFX=  1.000000  1.000000  1.000000  1.000000
 FoFCou: FMM=F IPFlag=           0 FMFlag=      100000 FMFlg1=        2001
         NFxFlg=           0 DoJE=T BraDBF=F KetDBF=T FulRan=T
         Omega=  0.000000  0.000000  1.000000  0.000000  0.000000 ICntrl=     500 IOpCl=  0
         NMat0=    1 NMatS0=    1 NMatT0=    0 NMatD0=    1 NMtDS0=    0 NMtDT0=    0
         I1Cent=           4 NGrid=           0.
 Petite list used in FoFCou.
 Initial guess orbital symmetries:
       Occupied  (A) (A) (A) (A) (A) (A) (A) (A) (A) (A) (A) (A)
                 (A) (A) (A) (A) (A) (A) (A) (A) (A) (A) (A) (A)
                 (A) (A) (A) (A) (A) (A) (A) (A) (A) (A) (A) (A)
                 (A) (A) (A) (A) (A) (A) (A) (A) (A) (A) (A) (A)
                 (A) (A) (A) (A) (A) (A) (A) (A) (A) (A) (A) (A)
                 (A) (A) (A) (A) (A) (A) (A) (A) (A) (A) (A) (A)
                 (A) (A) (A) (A) (A) (A) (A) (A) (A) (A) (A) (A)
                 (A) (A) (A) (A) (A) (A) (A) (A) (A) (A) (A) (A)
                 (A) (A) (A) (A) (A) (A) (A) (A) (A) (A) (A) (A)
                 (A) (A) (A) (A) (A) (A) (A)
       Virtual   (A) (A) (A) (A) (A) (A) (A) (A) (A) (A) (A) (A)
                 (A) (A) (A) (A) (A) (A) (A) (A) (A) (A) (A) (A)
                 (A) (A) (A) (A) (A) (A) (A) (A) (A) (A) (A) (A)
                 (A) (A) (A) (A) (A) (A) (A) (A) (A) (A) (A) (A)
                 (A) (A) (A) (A) (A) (A) (A) (A) (A) (A) (A) (A)
                 (A) (A) (A) (A) (A) (A) (A) (A) (A) (A) (A) (A)
                 (A) (A) (A) (A) (A) (A) (A) (A) (A) (A) (A) (A)
                 (A) (A) (A) (A) (A) (A) (A) (A) (A) (A) (A) (A)
                 (A) (A) (A) (A) (A) (A) (A) (A) (A) (A) (A) (A)
                 (A) (A) (A) (A) (A) (A) (A) (A) (A) (A) (A) (A)
                 (A) (A) (A) (A) (A) (A) (A) (A) (A) (A) (A) (A)
                 (A) (A) (A) (A) (A) (A) (A) (A) (A) (A) (A) (A)
                 (A) (A) (A) (A) (A) (A) (A) (A) (A) (A) (A) (A)
                 (A) (A) (A) (A) (A) (A) (A) (A) (A) (A) (A) (A)
                 (A) (A) (A) (A) (A) (A) (A) (A) (A) (A) (A) (A)
                 (A) (A) (A) (A) (A) (A) (A) (A) (A) (A) (A) (A)
                 (A) (A) (A) (A) (A) (A) (A) (A) (A) (A) (A) (A)
                 (A) (A) (A) (A) (A) (A) (A) (A) (A) (A) (A) (A)
                 (A) (A) (A) (A) (A) (A) (A) (A) (A) (A) (A) (A)
                 (A) (A) (A) (A) (A) (A) (A) (A) (A) (A) (A) (A)
                 (A) (A) (A) (A) (A) (A) (A) (A) (A) (A) (A) (A)
                 (A) (A) (A) (A) (A) (A) (A) (A) (A) (A) (A) (A)
                 (A) (A) (A) (A) (A) (A) (A) (A) (A) (A) (A) (A)
                 (A) (A) (A) (A) (A) (A) (A) (A) (A) (A) (A) (A)
                 (A) (A) (A) (A) (A) (A) (A) (A) (A) (A) (A) (A)
                 (A) (A) (A) (A) (A) (A) (A) (A) (A) (A) (A) (A)
                 (A) (A) (A) (A) (A) (A) (A) (A) (A) (A) (A) (A)
                 (A) (A) (A) (A) (A) (A) (A) (A) (A) (A) (A) (A)
                 (A) (A) (A) (A) (A) (A) (A) (A) (A) (A) (A) (A)
                 (A) (A) (A) (A) (A) (A) (A) (A) (A) (A) (A) (A)
                 (A) (A) (A) (A) (A) (A) (A) (A) (A) (A) (A) (A)
                 (A) (A) (A) (A) (A) (A) (A) (A) (A) (A) (A) (A)
                 (A) (A) (A) (A) (A) (A) (A) (A) (A) (A) (A) (A)
                 (A) (A) (A) (A) (A) (A) (A) (A) (A) (A) (A) (A)
                 (A) (A) (A) (A) (A) (A) (A) (A) (A) (A)
 The electronic state of the initial guess is 1-A.
 Requested convergence on RMS density matrix=1.00D-08 within 128 cycles.
 Requested convergence on MAX density matrix=1.00D-06.
 Requested convergence on             energy=1.00D-06.
 No special actions if energy rises.
 Integral accuracy reduced to 1.0D-05 until final iterations.
 Initial convergence to 1.0D-05 achieved.  Increase integral accuracy.
 SCF Done:  E(RB3LYP) =  -1387.30125646     A.U. after   16 cycles
             Convg  =    0.4310D-08             -V/T =  2.0091

 **********************************************************************

            Population analysis using the SCF density.

 **********************************************************************

 Orbital symmetries:
       Occupied  (A) (A) (A) (A) (A) (A) (A) (A) (A) (A) (A) (A)
                 (A) (A) (A) (A) (A) (A) (A) (A) (A) (A) (A) (A)
                 (A) (A) (A) (A) (A) (A) (A) (A) (A) (A) (A) (A)
                 (A) (A) (A) (A) (A) (A) (A) (A) (A) (A) (A) (A)
                 (A) (A) (A) (A) (A) (A) (A) (A) (A) (A) (A) (A)
                 (A) (A) (A) (A) (A) (A) (A) (A) (A) (A) (A) (A)
                 (A) (A) (A) (A) (A) (A) (A) (A) (A) (A) (A) (A)
                 (A) (A) (A) (A) (A) (A) (A) (A) (A) (A) (A) (A)
                 (A) (A) (A) (A) (A) (A) (A) (A) (A) (A) (A) (A)
                 (A) (A) (A) (A) (A) (A) (A)
       Virtual   (A) (A) (A) (A) (A) (A) (A) (A) (A) (A) (A) (A)
                 (A) (A) (A) (A) (A) (A) (A) (A) (A) (A) (A) (A)
                 (A) (A) (A) (A) (A) (A) (A) (A) (A) (A) (A) (A)
                 (A) (A) (A) (A) (A) (A) (A) (A) (A) (A) (A) (A)
                 (A) (A) (A) (A) (A) (A) (A) (A) (A) (A) (A) (A)
                 (A) (A) (A) (A) (A) (A) (A) (A) (A) (A) (A) (A)
                 (A) (A) (A) (A) (A) (A) (A) (A) (A) (A) (A) (A)
                 (A) (A) (A) (A) (A) (A) (A) (A) (A) (A) (A) (A)
                 (A) (A) (A) (A) (A) (A) (A) (A) (A) (A) (A) (A)
                 (A) (A) (A) (A) (A) (A) (A) (A) (A) (A) (A) (A)
                 (A) (A) (A) (A) (A) (A) (A) (A) (A) (A) (A) (A)
                 (A) (A) (A) (A) (A) (A) (A) (A) (A) (A) (A) (A)
                 (A) (A) (A) (A) (A) (A) (A) (A) (A) (A) (A) (A)
                 (A) (A) (A) (A) (A) (A) (A) (A) (A) (A) (A) (A)
                 (A) (A) (A) (A) (A) (A) (A) (A) (A) (A) (A) (A)
                 (A) (A) (A) (A) (A) (A) (A) (A) (A) (A) (A) (A)
                 (A) (A) (A) (A) (A) (A) (A) (A) (A) (A) (A) (A)
                 (A) (A) (A) (A) (A) (A) (A) (A) (A) (A) (A) (A)
                 (A) (A) (A) (A) (A) (A) (A) (A) (A) (A) (A) (A)
                 (A) (A) (A) (A) (A) (A) (A) (A) (A) (A) (A) (A)
                 (A) (A) (A) (A) (A) (A) (A) (A) (A) (A) (A) (A)
                 (A) (A) (A) (A) (A) (A) (A) (A) (A) (A) (A) (A)
                 (A) (A) (A) (A) (A) (A) (A) (A) (A) (A) (A) (A)
                 (A) (A) (A) (A) (A) (A) (A) (A) (A) (A) (A) (A)
                 (A) (A) (A) (A) (A) (A) (A) (A) (A) (A) (A) (A)
                 (A) (A) (A) (A) (A) (A) (A) (A) (A) (A) (A) (A)
                 (A) (A) (A) (A) (A) (A) (A) (A) (A) (A) (A) (A)
                 (A) (A) (A) (A) (A) (A) (A) (A) (A) (A) (A) (A)
                 (A) (A) (A) (A) (A) (A) (A) (A) (A) (A) (A) (A)
                 (A) (A) (A) (A) (A) (A) (A) (A) (A) (A) (A) (A)
                 (A) (A) (A) (A) (A) (A) (A) (A) (A) (A) (A) (A)
                 (A) (A) (A) (A) (A) (A) (A) (A) (A) (A) (A) (A)
                 (A) (A) (A) (A) (A) (A) (A) (A) (A) (A) (A) (A)
                 (A) (A) (A) (A) (A) (A) (A) (A) (A) (A) (A) (A)
                 (A) (A) (A) (A) (A) (A) (A) (A) (A) (A)
 The electronic state is 1-A.
 Alpha  occ. eigenvalues --  -19.19337 -19.16721 -19.15268 -19.13574 -19.13062
 Alpha  occ. eigenvalues --  -10.28031 -10.26900 -10.26688 -10.25912 -10.25864
 Alpha  occ. eigenvalues --  -10.25370 -10.25010 -10.21630 -10.20639 -10.20152
 Alpha  occ. eigenvalues --  -10.19983 -10.19485 -10.19419 -10.19298 -10.19188
 Alpha  occ. eigenvalues --  -10.19099 -10.18755 -10.18678 -10.18473 -10.18375
 Alpha  occ. eigenvalues --  -10.18245 -10.17942 -10.17561 -10.16824 -10.16620
 Alpha  occ. eigenvalues --  -10.16334  -1.08250  -1.05929  -1.03389  -1.02228
 Alpha  occ. eigenvalues --   -1.02023  -0.87321  -0.83885  -0.82567  -0.81655
 Alpha  occ. eigenvalues --   -0.80366  -0.79782  -0.76833  -0.74374  -0.73601
 Alpha  occ. eigenvalues --   -0.72283  -0.71322  -0.69371  -0.69171  -0.67809
 Alpha  occ. eigenvalues --   -0.65166  -0.64362  -0.63666  -0.62236  -0.60765
 Alpha  occ. eigenvalues --   -0.59359  -0.58274  -0.57321  -0.55463  -0.53849
 Alpha  occ. eigenvalues --   -0.53153  -0.52160  -0.50874  -0.50459  -0.49104
 Alpha  occ. eigenvalues --   -0.48037  -0.47209  -0.46543  -0.45869  -0.45744
 Alpha  occ. eigenvalues --   -0.45030  -0.44820  -0.44507  -0.43779  -0.43323
 Alpha  occ. eigenvalues --   -0.42961  -0.42585  -0.42002  -0.41758  -0.41521
 Alpha  occ. eigenvalues --   -0.41403  -0.40845  -0.40225  -0.39759  -0.39050
 Alpha  occ. eigenvalues --   -0.38682  -0.38427  -0.38378  -0.38137  -0.37971
 Alpha  occ. eigenvalues --   -0.37510  -0.37195  -0.37033  -0.36912  -0.36636
 Alpha  occ. eigenvalues --   -0.36372  -0.35997  -0.34612  -0.34517  -0.34228
 Alpha  occ. eigenvalues --   -0.33567  -0.33537  -0.33182  -0.32420  -0.32063
 Alpha  occ. eigenvalues --   -0.31361  -0.31251  -0.30923  -0.27839  -0.26527
 Alpha  occ. eigenvalues --   -0.26056  -0.25276  -0.24506  -0.23339  -0.23093
 Alpha virt. eigenvalues --   -0.05105  -0.01777   0.00398   0.02327   0.03720
 Alpha virt. eigenvalues --    0.07133   0.08579   0.08992   0.09303   0.10189
 Alpha virt. eigenvalues --    0.10709   0.10884   0.11531   0.11821   0.12501
 Alpha virt. eigenvalues --    0.13013   0.13307   0.13630   0.13941   0.14374
 Alpha virt. eigenvalues --    0.14744   0.14837   0.15054   0.15176   0.15309
 Alpha virt. eigenvalues --    0.15805   0.16113   0.16984   0.17257   0.17566
 Alpha virt. eigenvalues --    0.17936   0.18125   0.18387   0.18632   0.18869
 Alpha virt. eigenvalues --    0.19232   0.19735   0.20057   0.20319   0.20342
 Alpha virt. eigenvalues --    0.20887   0.21121   0.21691   0.21992   0.22574
 Alpha virt. eigenvalues --    0.23097   0.23462   0.23961   0.24348   0.24740
 Alpha virt. eigenvalues --    0.25313   0.25799   0.26264   0.26578   0.26885
 Alpha virt. eigenvalues --    0.27269   0.27967   0.28289   0.28978   0.29705
 Alpha virt. eigenvalues --    0.30737   0.32144   0.32466   0.33430   0.34462
 Alpha virt. eigenvalues --    0.34814   0.36036   0.37666   0.38887   0.40490
 Alpha virt. eigenvalues --    0.42195   0.45461   0.45633   0.48146   0.48412
 Alpha virt. eigenvalues --    0.50099   0.50717   0.51229   0.51574   0.52129
 Alpha virt. eigenvalues --    0.52273   0.52828   0.52897   0.53519   0.54078
 Alpha virt. eigenvalues --    0.54439   0.54927   0.55435   0.55808   0.56189
 Alpha virt. eigenvalues --    0.57104   0.57674   0.57834   0.58636   0.58873
 Alpha virt. eigenvalues --    0.59211   0.60041   0.60684   0.61647   0.61767
 Alpha virt. eigenvalues --    0.62445   0.63111   0.63406   0.63996   0.64671
 Alpha virt. eigenvalues --    0.65893   0.66211   0.66537   0.66838   0.67167
 Alpha virt. eigenvalues --    0.68447   0.68756   0.68845   0.69209   0.69934
 Alpha virt. eigenvalues --    0.70366   0.71024   0.71875   0.72769   0.73497
 Alpha virt. eigenvalues --    0.74001   0.74714   0.75234   0.75719   0.75865
 Alpha virt. eigenvalues --    0.76296   0.78139   0.78757   0.80030   0.80529
 Alpha virt. eigenvalues --    0.80878   0.81398   0.81753   0.81981   0.82486
 Alpha virt. eigenvalues --    0.82699   0.83727   0.83845   0.84368   0.85024
 Alpha virt. eigenvalues --    0.85301   0.85856   0.86022   0.86911   0.87339
 Alpha virt. eigenvalues --    0.87468   0.88136   0.88192   0.88677   0.89352
 Alpha virt. eigenvalues --    0.89591   0.90041   0.90275   0.90553   0.90798
 Alpha virt. eigenvalues --    0.91126   0.91397   0.91721   0.91985   0.92165
 Alpha virt. eigenvalues --    0.92692   0.93191   0.93627   0.94177   0.94379
 Alpha virt. eigenvalues --    0.95523   0.95676   0.96013   0.96358   0.96715
 Alpha virt. eigenvalues --    0.97690   0.98402   0.98712   0.99021   0.99894
 Alpha virt. eigenvalues --    1.00550   1.01820   1.02442   1.02896   1.04263
 Alpha virt. eigenvalues --    1.04735   1.05537   1.06098   1.07020   1.07384
 Alpha virt. eigenvalues --    1.09169   1.10689   1.10891   1.11298   1.12107
 Alpha virt. eigenvalues --    1.12450   1.12754   1.13947   1.15139   1.17106
 Alpha virt. eigenvalues --    1.17801   1.18087   1.18442   1.18978   1.20919
 Alpha virt. eigenvalues --    1.22084   1.24309   1.24428   1.25400   1.25995
 Alpha virt. eigenvalues --    1.26625   1.29643   1.30899   1.31769   1.34334
 Alpha virt. eigenvalues --    1.35877   1.36711   1.38257   1.38645   1.39683
 Alpha virt. eigenvalues --    1.40633   1.41794   1.42654   1.43654   1.44833
 Alpha virt. eigenvalues --    1.47549   1.49002   1.49890   1.51484   1.53114
 Alpha virt. eigenvalues --    1.53561   1.55168   1.56290   1.57132   1.58815
 Alpha virt. eigenvalues --    1.60479   1.61232   1.62712   1.63305   1.63446
 Alpha virt. eigenvalues --    1.65440   1.66150   1.67008   1.68591   1.70091
 Alpha virt. eigenvalues --    1.71344   1.72170   1.73325   1.74263   1.74695
 Alpha virt. eigenvalues --    1.75213   1.75544   1.76745   1.77479   1.78069
 Alpha virt. eigenvalues --    1.78778   1.79689   1.80658   1.81559   1.82622
 Alpha virt. eigenvalues --    1.82744   1.83688   1.84297   1.85245   1.85966
 Alpha virt. eigenvalues --    1.86844   1.86934   1.87550   1.88389   1.88791
 Alpha virt. eigenvalues --    1.89443   1.90049   1.90779   1.91189   1.91641
 Alpha virt. eigenvalues --    1.92260   1.93093   1.93695   1.94736   1.95615
 Alpha virt. eigenvalues --    1.95843   1.96511   1.96681   1.98084   1.98912
 Alpha virt. eigenvalues --    1.99380   2.00207   2.00776   2.01842   2.02303
 Alpha virt. eigenvalues --    2.02708   2.03348   2.03837   2.04782   2.06302
 Alpha virt. eigenvalues --    2.06698   2.07296   2.07826   2.09191   2.09537
 Alpha virt. eigenvalues --    2.09984   2.10614   2.12291   2.13357   2.13803
 Alpha virt. eigenvalues --    2.14063   2.14989   2.16119   2.16765   2.16942
 Alpha virt. eigenvalues --    2.18871   2.20529   2.21266   2.22241   2.23173
 Alpha virt. eigenvalues --    2.23553   2.24420   2.25727   2.26313   2.27820
 Alpha virt. eigenvalues --    2.28879   2.29957   2.31120   2.31248   2.31838
 Alpha virt. eigenvalues --    2.32408   2.33903   2.34329   2.34434   2.35425
 Alpha virt. eigenvalues --    2.36342   2.37052   2.37476   2.38279   2.39152
 Alpha virt. eigenvalues --    2.39857   2.41112   2.41654   2.42268   2.43530
 Alpha virt. eigenvalues --    2.44805   2.45394   2.45890   2.48192   2.48670
 Alpha virt. eigenvalues --    2.50008   2.50945   2.51726   2.52915   2.55365
 Alpha virt. eigenvalues --    2.57084   2.57781   2.58565   2.59584   2.60750
 Alpha virt. eigenvalues --    2.61269   2.62466   2.63632   2.64889   2.66476
 Alpha virt. eigenvalues --    2.67107   2.67919   2.68874   2.69475   2.71517
 Alpha virt. eigenvalues --    2.71830   2.72274   2.74176   2.76981   2.78999
 Alpha virt. eigenvalues --    2.80409   2.81672   2.82818   2.83984   2.86368
 Alpha virt. eigenvalues --    2.87080   2.89353   2.92989   2.94791   2.95575
 Alpha virt. eigenvalues --    2.96791   2.99789   3.01010   3.01948   3.04382
 Alpha virt. eigenvalues --    3.06645   3.07360   3.12823   3.18928   3.20715
 Alpha virt. eigenvalues --    3.22170   3.29566   4.00348   4.08316   4.10662
 Alpha virt. eigenvalues --    4.11877   4.14099   4.16720   4.18600   4.20132
 Alpha virt. eigenvalues --    4.22815   4.24907   4.27319   4.29914   4.31834
 Alpha virt. eigenvalues --    4.33957   4.35910   4.38561   4.39484   4.41105
 Alpha virt. eigenvalues --    4.46729   4.48382   4.53536   4.56106   4.60538
 Alpha virt. eigenvalues --    4.63744   4.65235   4.71805   4.75741   4.82596
 Alpha virt. eigenvalues --    4.91160   5.04137   5.18943
          Condensed to atoms (all electrons):
 Mulliken atomic charges:
              1
     1  C   -0.192067
     2  C    0.191983
     3  C   -0.186532
     4  C    0.321976
     5  C   -0.045790
     6  C   -0.331831
     7  C    0.212775
     8  C    0.398914
     9  C   -0.089873
    10  C    0.429384
    11  C    0.410554
    12  O   -0.454625
    13  C   -0.134613
    14  C   -0.261131
    15  C   -0.477813
    16  O   -0.509023
    17  C   -0.162824
    18  C    0.313120
    19  O   -0.537314
    20  C   -0.321623
    21  O   -0.661324
    22  C   -0.325782
    23  C    0.105601
    24  O   -0.584917
    25  C    0.178552
    26  C   -0.504664
    27  C   -0.391970
    28  C   -0.462555
    29  C   -0.462326
    30  H    0.142309
    31  H    0.163002
    32  C   -0.517691
    33  H    0.123587
    34  H    0.151799
    35  H    0.178701
    36  H    0.152774
    37  H    0.153003
    38  H    0.163903
    39  H    0.153107
    40  H    0.149035
    41  H    0.159525
    42  H    0.175119
    43  H    0.147132
    44  H    0.410619
    45  H    0.167508
    46  H    0.171715
    47  H    0.136440
    48  H    0.153564
    49  H    0.154585
    50  H    0.165887
    51  H    0.148988
    52  H    0.142635
    53  H    0.148853
    54  H    0.138625
    55  H    0.183649
    56  H    0.157944
    57  H    0.148021
    58  H    0.163910
    59  H    0.158052
    60  H    0.162788
    61  H    0.148070
    62  C   -0.449585
    63  H    0.140119
    64  H    0.143855
    65  H    0.144193
 Sum of Mulliken atomic charges =   0.00000
 Mulliken charges with hydrogens summed into heavy atoms:
              1
     1  C   -0.068480
     2  C    0.191983
     3  C   -0.023530
     4  C    0.321976
     5  C   -0.045790
     6  C   -0.001331
     7  C    0.212775
     8  C    0.398914
     9  C   -0.089873
    10  C    0.429384
    11  C    0.410554
    12  O   -0.454625
    13  C    0.018161
    14  C    0.055776
    15  C   -0.016146
    16  O   -0.509023
    17  C   -0.020515
    18  C    0.313120
    19  O   -0.537314
    20  C    0.000627
    21  O   -0.250705
    22  C    0.013440
    23  C    0.242040
    24  O   -0.584917
    25  C    0.178552
    26  C   -0.030628
    27  C   -0.100347
    28  C    0.008572
    29  C    0.007549
    32  C   -0.048782
    62  C   -0.021418
 Sum of Mulliken charges with hydrogens summed into heavy atoms =   0.00000
 Electronic spatial extent (au):  <R**2>=          11445.9079
 Charge=              0.0000 electrons
 Dipole moment (field-independent basis, Debye):
    X=             -4.7464    Y=              1.0954    Z=             -1.4129  Tot=              5.0719
 Quadrupole moment (field-independent basis, Debye-Ang):
   XX=           -184.6885   YY=           -177.6848   ZZ=           -183.3102
   XY=             -1.8073   XZ=             -5.8443   YZ=             -0.9151
 Traceless Quadrupole moment (field-independent basis, Debye-Ang):
   XX=             -2.7940   YY=              4.2097   ZZ=             -1.4157
   XY=             -1.8073   XZ=             -5.8443   YZ=             -0.9151
 Octapole moment (field-independent basis, Debye-Ang**2):
  XXX=            -25.5117  YYY=             35.4075  ZZZ=              8.0882  XYY=            -25.6597
  XXY=            -22.7680  XXZ=            -34.9531  XZZ=            -18.5689  YZZ=              2.8315
  YYZ=            -21.3105  XYZ=             -7.1571
 Hexadecapole moment (field-independent basis, Debye-Ang**3):
 XXXX=          -7618.9458 YYYY=          -4383.9837 ZZZZ=          -3223.7756 XXXY=              2.8562
 XXXZ=             30.4560 YYYX=             17.0194 YYYZ=            -11.0528 ZZZX=             27.6870
 ZZZY=            -14.1466 XXYY=          -2015.8453 XXZZ=          -1807.5333 YYZZ=          -1246.1548
 XXYZ=            -12.4255 YYXZ=              4.4789 ZZXY=             23.6073
 N-N= 3.522928526579D+03 E-N=-1.027231513800D+04  KE= 1.374775799042D+03
 Calling FoFJK, ICntrl=      2127 FMM=T ISym2X=0 I1Cent= 0 IOpClX= 0 NMat=1 NMatS=1 NMatT=0.
 ***** Axes restored to original set *****
 -------------------------------------------------------------------
 Center     Atomic                   Forces (Hartrees/Bohr)
 Number     Number              X              Y              Z
 -------------------------------------------------------------------
      1        6           0.009537222   -0.000599757    0.000382731
      2        6          -0.012601923   -0.005109235    0.001886121
      3        6          -0.001000520   -0.007963367   -0.000758502
      4        6           0.003366400   -0.004457538    0.010626203
      5        6          -0.011069678   -0.002464878    0.000982435
      6        6          -0.004348334   -0.010684608   -0.000815236
      7        6           0.010877551    0.019746360    0.008673458
      8        6           0.010350045   -0.012628457   -0.014441270
      9        6           0.001401739    0.005857198    0.013156564
     10        6          -0.005581683    0.002448704   -0.020839477
     11        6          -0.006005368   -0.028204976   -0.018282300
     12        8          -0.005244321    0.023040694    0.002833367
     13        6           0.003146182    0.001375613    0.000252032
     14        6          -0.005525028   -0.006973148   -0.002850314
     15        6           0.001814497    0.004151855    0.003567678
     16        8           0.006499307   -0.003827987    0.010038561
     17        6           0.007884309   -0.011189483   -0.005662911
     18        6           0.032119621    0.007665152   -0.000027353
     19        8          -0.028245376    0.002166582    0.026070765
     20        6           0.011195029   -0.005003369   -0.000019089
     21        8          -0.005529607    0.007124039   -0.002153633
     22        6          -0.007110989    0.013771567    0.001624993
     23        6          -0.005161533    0.008096149    0.000614557
     24        8           0.001538915   -0.006093495   -0.009567614
     25        6          -0.003065420    0.014856838    0.001321989
     26        6           0.001339023    0.001678124    0.000362577
     27        6           0.001054317   -0.010045805   -0.001431187
     28        6          -0.002804956    0.007803975   -0.004785596
     29        6          -0.003650027   -0.006310021   -0.009019787
     30        1          -0.001634579    0.001131709   -0.001654345
     31        1          -0.003142586    0.005977564   -0.000065988
     32        6          -0.001145814    0.000862305   -0.001112649
     33        1           0.001484543   -0.000844936   -0.000114156
     34        1          -0.000586045    0.005676772    0.001808811
     35        1           0.000423003    0.007270914   -0.001491542
     36        1          -0.000879686   -0.004626572   -0.001953548
     37        1           0.003572508    0.000378432    0.001766207
     38        1           0.002685884    0.000293478    0.002536716
     39        1           0.000190384    0.000351585    0.000357586
     40        1          -0.000751814   -0.001048390   -0.000571791
     41        1          -0.000338693   -0.000336989    0.000516372
     42        1           0.000064490    0.002961713   -0.000240086
     43        1          -0.001269307   -0.001916045   -0.001398486
     44        1          -0.001878271   -0.003563849   -0.002595510
     45        1           0.001416931   -0.003002979   -0.001253818
     46        1           0.002053639    0.000305018    0.003589800
     47        1          -0.001919193   -0.001336136    0.003007689
     48        1          -0.001362491   -0.000127115   -0.001668816
     49        1           0.002543823   -0.002644073    0.001601246
     50        1           0.000985584   -0.003343356    0.002295289
     51        1          -0.000216910   -0.000335921   -0.001374269
     52        1          -0.000048402   -0.000625822    0.001011969
     53        1           0.002014624   -0.003822953    0.000344684
     54        1           0.000509724   -0.000842984    0.000161743
     55        1          -0.001328560   -0.002783178    0.005442547
     56        1           0.000568403    0.002766869    0.001460181
     57        1          -0.000724647    0.001281836    0.000703939
     58        1          -0.000363477    0.000106734    0.003649021
     59        1          -0.001115473    0.001790415   -0.000625788
     60        1           0.004170090   -0.001634843    0.000326904
     61        1           0.004133508   -0.001117682    0.000192645
     62        6          -0.002500169    0.001770715   -0.001417256
     63        1           0.000365771    0.000819869   -0.002061223
     64        1          -0.000839932    0.000334637   -0.001064361
     65        1          -0.000316252    0.001646530   -0.001849481
 -------------------------------------------------------------------
 Cartesian Forces:  Max     0.032119621 RMS     0.006817027

 GradGradGradGradGradGradGradGradGradGradGradGradGradGradGradGradGradGrad
 Berny optimization.
 Internal  Forces:  Max     0.023614549 RMS     0.003489191
 Search for a local minimum.
 Step number   1 out of a maximum of  390
 All quantities printed in internal units (Hartrees-Bohrs-Radians)
 Mixed Optimization -- RFO/linear search
 Second derivative matrix not updated -- first step.
 ITU=  0
     Eigenvalues ---    0.00260   0.00276   0.00336   0.00358   0.00381
     Eigenvalues ---    0.00431   0.00473   0.00561   0.00609   0.00615
     Eigenvalues ---    0.00624   0.00661   0.00682   0.00686   0.00730
     Eigenvalues ---    0.01041   0.01083   0.01244   0.01249   0.01421
     Eigenvalues ---    0.01458   0.01625   0.01714   0.01821   0.01927
     Eigenvalues ---    0.02506   0.02827   0.02827   0.03031   0.03115
     Eigenvalues ---    0.03437   0.03501   0.03597   0.03745   0.04033
     Eigenvalues ---    0.04108   0.04315   0.04402   0.04585   0.04641
     Eigenvalues ---    0.04694   0.04799   0.04927   0.05096   0.05249
     Eigenvalues ---    0.05308   0.05381   0.05409   0.05419   0.05494
     Eigenvalues ---    0.05503   0.05518   0.05529   0.05550   0.05616
     Eigenvalues ---    0.05712   0.05922   0.05932   0.06272   0.06639
     Eigenvalues ---    0.06691   0.06861   0.07090   0.07111   0.07156
     Eigenvalues ---    0.07248   0.07249   0.07363   0.07663   0.08379
     Eigenvalues ---    0.08501   0.08820   0.09023   0.09177   0.09807
     Eigenvalues ---    0.10097   0.10645   0.10896   0.11632   0.12321
     Eigenvalues ---    0.13183   0.14698   0.15197   0.15972   0.16000
     Eigenvalues ---    0.16000   0.16000   0.16000   0.16000   0.16000
     Eigenvalues ---    0.16000   0.16000   0.16000   0.16000   0.16000
     Eigenvalues ---    0.16000   0.16000   0.16000   0.16000   0.16000
     Eigenvalues ---    0.16000   0.16000   0.16000   0.16000   0.16000
     Eigenvalues ---    0.16440   0.17166   0.17261   0.18324   0.18582
     Eigenvalues ---    0.19719   0.21562   0.21910   0.22711   0.23545
     Eigenvalues ---    0.24516   0.24932   0.24981   0.24986   0.24993
     Eigenvalues ---    0.24993   0.24994   0.25000   0.25877   0.27263
     Eigenvalues ---    0.27394   0.27703   0.27823   0.28111   0.28279
     Eigenvalues ---    0.28651   0.28677   0.28783   0.29191   0.29348
     Eigenvalues ---    0.29504   0.30160   0.30436   0.30597   0.31163
     Eigenvalues ---    0.31561   0.31752   0.31810   0.33445   0.33664
     Eigenvalues ---    0.33814   0.33983   0.33993   0.33995   0.34017
     Eigenvalues ---    0.34033   0.34048   0.34062   0.34078   0.34100
     Eigenvalues ---    0.34123   0.34137   0.34145   0.34201   0.34202
     Eigenvalues ---    0.34233   0.34237   0.34243   0.34254   0.34259
     Eigenvalues ---    0.34260   0.34270   0.34276   0.34297   0.34308
     Eigenvalues ---    0.34316   0.34334   0.34393   0.34455   0.34664
     Eigenvalues ---    0.34956   0.35206   0.35281   0.35452   0.36365
     Eigenvalues ---    0.37298   0.42811   0.43617   0.51629   0.53328
     Eigenvalues ---    0.54556   0.56279   0.89432   0.89857
 RFO step:  Lambda=-2.17192456D-02 EMin= 2.60306078D-03
 Linear search not attempted -- first point.
 Iteration  1 RMS(Cart)=  0.04981857 RMS(Int)=  0.00068354
 Iteration  2 RMS(Cart)=  0.00110075 RMS(Int)=  0.00025709
 Iteration  3 RMS(Cart)=  0.00000066 RMS(Int)=  0.00025709
 Variable       Old X    -DE/DX   Delta X   Delta X   Delta X     New X
                                 (Linear)    (Quad)   (Total)
    R1        2.53507  -0.00272   0.00000  -0.00568  -0.00569   2.52938
    R2        2.82368   0.00854   0.00000   0.02501   0.02495   2.84863
    R3        2.05746  -0.00002   0.00000  -0.00004  -0.00004   2.05742
    R4        2.85466   0.00367   0.00000   0.00810   0.00815   2.86281
    R5        2.84600   0.00310   0.00000   0.00913   0.00913   2.85513
    R6        2.94040   0.00502   0.00000   0.01225   0.01214   2.95254
    R7        2.90957   0.01095   0.00000   0.03740   0.03738   2.94695
    R8        2.07902  -0.00077   0.00000  -0.00215  -0.00215   2.07686
    R9        2.90577   0.00859   0.00000   0.02834   0.02817   2.93394
   R10        2.91317   0.00690   0.00000   0.02403   0.02415   2.93732
   R11        2.76283  -0.00438   0.00000  -0.01018  -0.01020   2.75263
   R12        2.91414  -0.00006   0.00000   0.00255   0.00247   2.91662
   R13        2.90410   0.00615   0.00000   0.01333   0.01330   2.91740
   R14        2.89347   0.01255   0.00000   0.04060   0.04061   2.93409
   R15        2.07249   0.00293   0.00000   0.00808   0.00808   2.08057
   R16        2.07339  -0.00121   0.00000  -0.00336  -0.00336   2.07003
   R17        2.81368   0.00873   0.00000   0.01904   0.01863   2.83230
   R18        2.85903   0.01557   0.00000   0.05580   0.05530   2.91432
   R19        2.67903   0.00341   0.00000   0.00759   0.00759   2.68662
   R20        2.52553   0.01160   0.00000   0.02005   0.02005   2.54558
   R21        2.63014  -0.02037   0.00000  -0.04821  -0.04802   2.58212
   R22        2.79193  -0.00217   0.00000  -0.01028  -0.01010   2.78183
   R23        2.79523   0.02091   0.00000   0.05677   0.05677   2.85200
   R24        2.32999  -0.00915   0.00000  -0.00994  -0.00994   2.32005
   R25        2.33196  -0.02361   0.00000  -0.02578  -0.02578   2.30618
   R26        2.89283   0.00044   0.00000   0.00141   0.00141   2.89424
   R27        2.90682   0.00419   0.00000   0.01359   0.01359   2.92041
   R28        2.88963   0.00405   0.00000   0.01279   0.01279   2.90243
   R29        2.07645   0.00121   0.00000   0.00338   0.00338   2.07983
   R30        2.07359  -0.00047   0.00000  -0.00129  -0.00129   2.07230
   R31        2.07162   0.00026   0.00000   0.00071   0.00071   2.07232
   R32        2.87645   0.00847   0.00000   0.02620   0.02620   2.90265
   R33        2.06938   0.00039   0.00000   0.00107   0.00107   2.07045
   R34        2.06832   0.00003   0.00000   0.00008   0.00008   2.06839
   R35        2.06922   0.00056   0.00000   0.00154   0.00154   2.07076
   R36        2.91798  -0.00087   0.00000   0.00952   0.00979   2.92777
   R37        2.90577   0.00416   0.00000   0.01433   0.01441   2.92017
   R38        2.07123  -0.00156   0.00000  -0.00429  -0.00429   2.06694
[...]
     56          1           0        1.082153    4.720849   -1.562480
     57          1           0       -0.609758    5.024322   -1.123132
     58          1           0        0.514626    4.330417    0.066948
     59          1           0       -1.310986    1.799042    4.841611
     60          1           0       -0.943630    2.931872    3.531808
     61          1           0       -2.611998    2.448429    3.825593
     62          6           0        6.063100   -2.061772   -0.020442
     63          1           0        6.703184   -1.425224   -0.644855
     64          1           0        6.672895   -2.429087    0.813175
     65          1           0        5.771509   -2.931679   -0.619494
 ---------------------------------------------------------------------
 Rotational constants (GHZ):      0.1846055      0.1305789      0.1155544

 **********************************************************************

            Population analysis using the SCF density.

 **********************************************************************

 Orbital symmetries:
       Occupied  (A) (A) (A) (A) (A) (A) (A) (A) (A) (A) (A) (A)
                 (A) (A) (A) (A) (A) (A) (A) (A) (A) (A) (A) (A)
                 (A) (A) (A) (A) (A) (A) (A) (A) (A) (A) (A) (A)
                 (A) (A) (A) (A) (A) (A) (A) (A) (A) (A) (A) (A)
                 (A) (A) (A) (A) (A) (A) (A) (A) (A) (A) (A) (A)
                 (A) (A) (A) (A) (A) (A) (A) (A) (A) (A) (A) (A)
                 (A) (A) (A) (A) (A) (A) (A) (A) (A) (A) (A) (A)
                 (A) (A) (A) (A) (A) (A) (A) (A) (A) (A) (A) (A)
                 (A) (A) (A) (A) (A) (A) (A) (A) (A) (A) (A) (A)
                 (A) (A) (A) (A) (A) (A) (A)
       Virtual   (A) (A) (A) (A) (A) (A) (A) (A) (A) (A) (A) (A)
                 (A) (A) (A) (A) (A) (A) (A) (A) (A) (A) (A) (A)
                 (A) (A) (A) (A) (A) (A) (A) (A) (A) (A) (A) (A)
                 (A) (A) (A) (A) (A) (A) (A) (A) (A) (A) (A) (A)
                 (A) (A) (A) (A) (A) (A) (A) (A) (A) (A) (A) (A)
                 (A) (A) (A) (A) (A) (A) (A) (A) (A) (A) (A) (A)
                 (A) (A) (A) (A) (A) (A) (A) (A) (A) (A) (A) (A)
                 (A) (A) (A) (A) (A) (A) (A) (A) (A) (A) (A) (A)
                 (A) (A) (A) (A) (A) (A) (A) (A) (A) (A) (A) (A)
                 (A) (A) (A) (A) (A) (A) (A) (A) (A) (A) (A) (A)
                 (A) (A) (A) (A) (A) (A) (A) (A) (A) (A) (A) (A)
                 (A) (A) (A) (A) (A) (A) (A) (A) (A) (A) (A) (A)
                 (A) (A) (A) (A) (A) (A) (A) (A) (A) (A) (A) (A)
                 (A) (A) (A) (A) (A) (A) (A) (A) (A) (A) (A) (A)
                 (A) (A) (A) (A) (A) (A) (A) (A) (A) (A) (A) (A)
                 (A) (A) (A) (A) (A) (A) (A) (A) (A) (A) (A) (A)
                 (A) (A) (A) (A) (A) (A) (A) (A) (A) (A) (A) (A)
                 (A) (A) (A) (A) (A) (A) (A) (A) (A) (A) (A) (A)
                 (A) (A) (A) (A) (A) (A) (A) (A) (A) (A) (A) (A)
                 (A) (A) (A) (A) (A) (A) (A) (A) (A) (A) (A) (A)
                 (A) (A) (A) (A) (A) (A) (A) (A) (A) (A) (A) (A)
                 (A) (A) (A) (A) (A) (A) (A) (A) (A) (A) (A) (A)
                 (A) (A) (A) (A) (A) (A) (A) (A) (A) (A) (A) (A)
                 (A) (A) (A) (A) (A) (A) (A) (A) (A) (A) (A) (A)
                 (A) (A) (A) (A) (A) (A) (A) (A) (A) (A) (A) (A)
                 (A) (A) (A) (A) (A) (A) (A) (A) (A) (A) (A) (A)
                 (A) (A) (A) (A) (A) (A) (A) (A) (A) (A) (A) (A)
                 (A) (A) (A) (A) (A) (A) (A) (A) (A) (A) (A) (A)
                 (A) (A) (A) (A) (A) (A) (A) (A) (A) (A) (A) (A)
                 (A) (A) (A) (A) (A) (A) (A) (A) (A) (A) (A) (A)
                 (A) (A) (A) (A) (A) (A) (A) (A) (A) (A) (A) (A)
                 (A) (A) (A) (A) (A) (A) (A) (A) (A) (A) (A) (A)
                 (A) (A) (A) (A) (A) (A) (A) (A) (A) (A) (A) (A)
                 (A) (A) (A) (A) (A) (A) (A) (A) (A) (A) (A) (A)
                 (A) (A) (A) (A) (A) (A) (A) (A) (A) (A)
 The electronic state is 1-A.
 Alpha  occ. eigenvalues --  -19.19393 -19.16646 -19.15745 -19.12702 -19.12543
 Alpha  occ. eigenvalues --  -10.27161 -10.27080 -10.26541 -10.26511 -10.25717
 Alpha  occ. eigenvalues --  -10.25668 -10.25195 -10.21328 -10.20834 -10.20504
 Alpha  occ. eigenvalues --  -10.20280 -10.19747 -10.19603 -10.19280 -10.19082
 Alpha  occ. eigenvalues --  -10.18936 -10.18928 -10.18746 -10.18694 -10.18389
 Alpha  occ. eigenvalues --  -10.18087 -10.18066 -10.18033 -10.16508 -10.16244
 Alpha  occ. eigenvalues --  -10.16223  -1.09038  -1.05816  -1.02995  -1.02367
 Alpha  occ. eigenvalues --   -1.02291  -0.86614  -0.83533  -0.82359  -0.81321
 Alpha  occ. eigenvalues --   -0.80183  -0.79106  -0.76577  -0.74246  -0.73074
 Alpha  occ. eigenvalues --   -0.71752  -0.70992  -0.69805  -0.69511  -0.67757
 Alpha  occ. eigenvalues --   -0.64967  -0.64195  -0.63402  -0.61860  -0.60479
 Alpha  occ. eigenvalues --   -0.59271  -0.57974  -0.56905  -0.55114  -0.53573
 Alpha  occ. eigenvalues --   -0.52935  -0.52183  -0.50573  -0.50342  -0.49150
 Alpha  occ. eigenvalues --   -0.48039  -0.46876  -0.46475  -0.45860  -0.45441
 Alpha  occ. eigenvalues --   -0.45152  -0.44452  -0.44329  -0.43399  -0.43202
 Alpha  occ. eigenvalues --   -0.42863  -0.42399  -0.41857  -0.41556  -0.41285
 Alpha  occ. eigenvalues --   -0.41037  -0.40621  -0.40419  -0.39996  -0.39028
 Alpha  occ. eigenvalues --   -0.38928  -0.38363  -0.38137  -0.37957  -0.37862
 Alpha  occ. eigenvalues --   -0.37502  -0.37404  -0.37272  -0.36991  -0.36675
 Alpha  occ. eigenvalues --   -0.36376  -0.35889  -0.34937  -0.34320  -0.34310
 Alpha  occ. eigenvalues --   -0.33553  -0.33456  -0.33363  -0.32664  -0.31929
 Alpha  occ. eigenvalues --   -0.31099  -0.31033  -0.30315  -0.28068  -0.26683
 Alpha  occ. eigenvalues --   -0.26275  -0.24728  -0.24015  -0.23385  -0.22552
 Alpha virt. eigenvalues --   -0.04577  -0.01023   0.00288   0.02303   0.05112
 Alpha virt. eigenvalues --    0.07287   0.08848   0.08931   0.09367   0.10270
 Alpha virt. eigenvalues --    0.10819   0.10989   0.11261   0.12239   0.12247
 Alpha virt. eigenvalues --    0.13066   0.13314   0.13500   0.14191   0.14396
 Alpha virt. eigenvalues --    0.14771   0.15124   0.15197   0.15616   0.15766
 Alpha virt. eigenvalues --    0.16134   0.16737   0.16904   0.16998   0.17338
 Alpha virt. eigenvalues --    0.17838   0.17926   0.18186   0.18575   0.18762
 Alpha virt. eigenvalues --    0.19130   0.19235   0.19388   0.20264   0.20459
 Alpha virt. eigenvalues --    0.20884   0.21127   0.21497   0.22068   0.22441
 Alpha virt. eigenvalues --    0.22809   0.23200   0.23700   0.23977   0.24508
 Alpha virt. eigenvalues --    0.25264   0.25399   0.26307   0.26700   0.26865
 Alpha virt. eigenvalues --    0.27494   0.27873   0.28370   0.29107   0.29608
 Alpha virt. eigenvalues --    0.30226   0.31797   0.32524   0.33005   0.33962
 Alpha virt. eigenvalues --    0.34550   0.36385   0.36884   0.38615   0.39955
 Alpha virt. eigenvalues --    0.41648   0.45570   0.45811   0.48431   0.48966
 Alpha virt. eigenvalues --    0.49333   0.50204   0.51057   0.51461   0.51772
 Alpha virt. eigenvalues --    0.52092   0.52884   0.53005   0.53458   0.53833
 Alpha virt. eigenvalues --    0.54132   0.54362   0.55096   0.55757   0.55974
 Alpha virt. eigenvalues --    0.56649   0.57406   0.57721   0.58534   0.58680
 Alpha virt. eigenvalues --    0.58748   0.60100   0.60608   0.61098   0.61513
 Alpha virt. eigenvalues --    0.62484   0.63002   0.63085   0.63725   0.64508
 Alpha virt. eigenvalues --    0.65679   0.66299   0.66611   0.66807   0.67535
 Alpha virt. eigenvalues --    0.68392   0.68412   0.69194   0.69441   0.69800
 Alpha virt. eigenvalues --    0.70404   0.70593   0.71819   0.72205   0.73302
 Alpha virt. eigenvalues --    0.73845   0.74788   0.75201   0.75859   0.76042
 Alpha virt. eigenvalues --    0.76609   0.77276   0.78265   0.79609   0.80226
 Alpha virt. eigenvalues --    0.80292   0.81600   0.82015   0.82320   0.82876
 Alpha virt. eigenvalues --    0.83183   0.83816   0.84365   0.84666   0.85215
 Alpha virt. eigenvalues --    0.85690   0.86041   0.86432   0.86676   0.87212
 Alpha virt. eigenvalues --    0.87660   0.87876   0.88461   0.88653   0.89255
 Alpha virt. eigenvalues --    0.89261   0.89823   0.89895   0.90534   0.90826
 Alpha virt. eigenvalues --    0.91205   0.91332   0.91543   0.91756   0.92239
 Alpha virt. eigenvalues --    0.93181   0.93510   0.93565   0.94059   0.94530
 Alpha virt. eigenvalues --    0.95355   0.95553   0.96060   0.96523   0.97294
 Alpha virt. eigenvalues --    0.97548   0.98440   0.98577   0.99261   0.99844
 Alpha virt. eigenvalues --    1.00281   1.01384   1.02375   1.03098   1.03902
 Alpha virt. eigenvalues --    1.04221   1.06129   1.06861   1.07799   1.08659
 Alpha virt. eigenvalues --    1.09457   1.10671   1.11282   1.12280   1.12558
 Alpha virt. eigenvalues --    1.14228   1.14696   1.15320   1.15630   1.16221
 Alpha virt. eigenvalues --    1.17118   1.17842   1.18276   1.19097   1.21910
 Alpha virt. eigenvalues --    1.22592   1.24341   1.24867   1.25297   1.27280
 Alpha virt. eigenvalues --    1.27925   1.29920   1.29992   1.32095   1.33073
 Alpha virt. eigenvalues --    1.35089   1.36990   1.37261   1.38416   1.40258
 Alpha virt. eigenvalues --    1.40544   1.42294   1.42568   1.44050   1.45560
 Alpha virt. eigenvalues --    1.46250   1.47981   1.49672   1.50606   1.52863
 Alpha virt. eigenvalues --    1.53636   1.54640   1.55600   1.56098   1.58992
 Alpha virt. eigenvalues --    1.59474   1.60357   1.61665   1.62716   1.64230
 Alpha virt. eigenvalues --    1.64663   1.65738   1.67245   1.68363   1.68919
 Alpha virt. eigenvalues --    1.71257   1.71434   1.72599   1.72986   1.73403
 Alpha virt. eigenvalues --    1.74836   1.74993   1.77041   1.77346   1.78077
 Alpha virt. eigenvalues --    1.79067   1.79237   1.80364   1.80739   1.81441
 Alpha virt. eigenvalues --    1.82603   1.83712   1.83925   1.84806   1.85687
 Alpha virt. eigenvalues --    1.86208   1.86774   1.87343   1.87812   1.87898
 Alpha virt. eigenvalues --    1.88960   1.89438   1.89867   1.90734   1.91294
 Alpha virt. eigenvalues --    1.91908   1.92056   1.93204   1.94949   1.95196
 Alpha virt. eigenvalues --    1.95306   1.96396   1.97006   1.97657   1.98800
 Alpha virt. eigenvalues --    1.99218   1.99456   1.99859   2.00454   2.01438
 Alpha virt. eigenvalues --    2.01997   2.02597   2.04195   2.05355   2.06012
 Alpha virt. eigenvalues --    2.06372   2.06704   2.07137   2.09131   2.09556
 Alpha virt. eigenvalues --    2.09749   2.10035   2.11549   2.12160   2.13509
 Alpha virt. eigenvalues --    2.14200   2.14959   2.15549   2.16396   2.16926
 Alpha virt. eigenvalues --    2.17607   2.19454   2.19869   2.21372   2.22686
 Alpha virt. eigenvalues --    2.24144   2.24375   2.24747   2.26371   2.26652
 Alpha virt. eigenvalues --    2.28521   2.29929   2.30086   2.30436   2.31933
 Alpha virt. eigenvalues --    2.33397   2.33609   2.33798   2.34306   2.34807
 Alpha virt. eigenvalues --    2.35411   2.36728   2.37556   2.38178   2.39287
 Alpha virt. eigenvalues --    2.40413   2.40804   2.41252   2.41287   2.42290
 Alpha virt. eigenvalues --    2.43486   2.44673   2.45368   2.47653   2.47693
 Alpha virt. eigenvalues --    2.49478   2.50441   2.51727   2.53239   2.55437
 Alpha virt. eigenvalues --    2.56416   2.57071   2.57951   2.59051   2.59451
 Alpha virt. eigenvalues --    2.60566   2.61735   2.63116   2.64482   2.65967
 Alpha virt. eigenvalues --    2.66379   2.67866   2.68176   2.69491   2.70394
 Alpha virt. eigenvalues --    2.70928   2.71369   2.72492   2.76368   2.76922
 Alpha virt. eigenvalues --    2.77526   2.79865   2.82642   2.84101   2.84599
 Alpha virt. eigenvalues --    2.86602   2.88770   2.91121   2.93449   2.96232
 Alpha virt. eigenvalues --    2.97845   3.00747   3.01223   3.01517   3.03223
 Alpha virt. eigenvalues --    3.05961   3.07837   3.11970   3.18006   3.21030
 Alpha virt. eigenvalues --    3.25058   3.28360   4.02792   4.06395   4.08662
 Alpha virt. eigenvalues --    4.12183   4.13056   4.15255   4.17206   4.19742
 Alpha virt. eigenvalues --    4.22077   4.24313   4.26886   4.27323   4.30892
 Alpha virt. eigenvalues --    4.31958   4.35321   4.37465   4.40493   4.42287
 Alpha virt. eigenvalues --    4.45492   4.49204   4.53295   4.56459   4.60154
 Alpha virt. eigenvalues --    4.63264   4.66094   4.69800   4.75738   4.82933
 Alpha virt. eigenvalues --    4.89795   5.04963   5.16084
          Condensed to atoms (all electrons):
 Mulliken atomic charges:
              1
     1  C   -0.187013
     2  C    0.194533
     3  C   -0.188478
     4  C    0.325116
     5  C   -0.054889
     6  C   -0.333789
     7  C    0.200249
     8  C    0.401223
     9  C   -0.099225
    10  C    0.432815
    11  C    0.411337
    12  O   -0.447281
    13  C   -0.130530
    14  C   -0.263734
    15  C   -0.477841
    16  O   -0.520573
    17  C   -0.165002
    18  C    0.303419
    19  O   -0.519221
    20  C   -0.324966
    21  O   -0.658140
    22  C   -0.327203
    23  C    0.097530
    24  O   -0.591955
    25  C    0.180792
    26  C   -0.508082
    27  C   -0.392459
    28  C   -0.468532
    29  C   -0.457310
    30  H    0.142596
    31  H    0.163483
    32  C   -0.520009
    33  H    0.122614
    34  H    0.145474
    35  H    0.184856
    36  H    0.147575
    37  H    0.150180
    38  H    0.167121
    39  H    0.145953
    40  H    0.145611
    41  H    0.164748
    42  H    0.174424
    43  H    0.150789
    44  H    0.414025
    45  H    0.167083
    46  H    0.171113
    47  H    0.138889
    48  H    0.154494
    49  H    0.156737
    50  H    0.170990
    51  H    0.152671
    52  H    0.142453
    53  H    0.157541
    54  H    0.142755
    55  H    0.191262
    56  H    0.165428
    57  H    0.147903
    58  H    0.168073
    59  H    0.158005
    60  H    0.159931
    61  H    0.149435
    62  C   -0.450372
    63  H    0.138341
    64  H    0.142983
    65  H    0.144054
 Sum of Mulliken atomic charges =   0.00000
 Mulliken charges with hydrogens summed into heavy atoms:
              1
     1  C   -0.064398
     2  C    0.194533
     3  C   -0.024994
     4  C    0.325116
     5  C   -0.054889
     6  C   -0.003459
     7  C    0.200249
     8  C    0.401223
     9  C   -0.099225
    10  C    0.432815
    11  C    0.411337
    12  O   -0.447281
    13  C    0.017045
    14  C    0.053568
    15  C   -0.021529
    16  O   -0.520573
    17  C   -0.022406
    18  C    0.303419
    19  O   -0.519221
    20  C    0.000247
    21  O   -0.244115
    22  C    0.010993
    23  C    0.236419
    24  O   -0.591955
    25  C    0.180792
    26  C   -0.025861
    27  C   -0.097335
    28  C    0.023027
    29  C    0.024093
    32  C   -0.052638
    62  C   -0.024995
 Sum of Mulliken charges with hydrogens summed into heavy atoms =   0.00000
 Electronic spatial extent (au):  <R**2>=          11589.8050
 Charge=              0.0000 electrons
 Dipole moment (field-independent basis, Debye):
    X=             -5.3431    Y=              0.8465    Z=             -1.1615  Tot=              5.5331
 Quadrupole moment (field-independent basis, Debye-Ang):
   XX=           -187.2023   YY=           -175.2610   ZZ=           -182.1652
   XY=             -3.1094   XZ=             -3.9512   YZ=              0.0623
 Traceless Quadrupole moment (field-independent basis, Debye-Ang):
   XX=             -5.6595   YY=              6.2819   ZZ=             -0.6224
   XY=             -3.1094   XZ=             -3.9512   YZ=              0.0623
 Octapole moment (field-independent basis, Debye-Ang**2):
  XXX=            -38.2552  YYY=             40.2271  ZZZ=              5.7146  XYY=            -36.6438
  XXY=            -24.1214  XXZ=            -30.6478  XZZ=            -10.0368  YZZ=              6.7775
  YYZ=            -23.3327  XYZ=             -5.5727
 Hexadecapole moment (field-independent basis, Debye-Ang**3):
 XXXX=          -7653.8138 YYYY=          -4554.8357 ZZZZ=          -3204.4016 XXXY=              6.3836
 XXXZ=             38.2405 YYYX=              8.4291 YYYZ=            -40.8344 ZZZX=             36.1531
 ZZZY=             -9.2530 XXYY=          -2068.7677 XXZZ=          -1794.3756 YYZZ=          -1262.7185
 XXYZ=              4.1174 YYXZ=              1.9156 ZZXY=             31.9385
 N-N= 3.506697599033D+03 E-N=-1.023981290014D+04  KE= 1.374457004938D+03
 1\1\GINC-B0805\FOpt\RB3LYP\6-31G(d)\C26H34O5\CAOFEI\24-Mar-2021\0\\# o
 pt rb3lyp/6-31g(d) geom=connectivity\\Title Card Required\\0,1\C,-0.04
 65531394,0.051761716,-0.06849687\C,1.2891436017,-0.0049226777,-0.01849
 24419\C,2.1313121001,1.2532174887,0.0018463997\C,1.3812735273,2.582547
 8607,-0.325679902\C,-0.1061896674,2.5110974702,-0.7656377379\C,-0.8429
 678462,1.326524094,-0.0949696011\C,2.2891774072,3.2908898181,-1.366941
 734\C,1.9597431542,2.9154543849,-2.7949883186\C,0.719324231,2.62026664
 58,-3.2524770499\C,-0.371348203,2.4487377297,-2.2949074357\C,0.4901284
 057,2.2689591166,-4.7109312234\O,1.0808160433,1.3174593667,-5.18926350
 83\C,-0.4411634833,3.1191976135,-5.5870111529\C,-1.6613990566,2.262782
 2252,-6.0110906803\C,-0.8232640573,4.4761782052,-4.9821546087\O,-1.520
 7065322,2.2240644146,-2.6717270473\C,3.7001541602,2.670578649,-1.27830
 66492\C,4.2829508658,2.9424328744,-2.6870737874\O,3.0667181311,2.90733
 60751,-3.5458309648\C,3.3678222154,1.2025504093,-0.9435440028\O,2.2269
 272419,4.7014427669,-1.2608040755\C,-0.6564735683,3.8601769419,-0.2304
 185916\C,0.0870370722,4.02696809,1.0918536827\O,1.391117569,3.41764484
 91,0.8607759016\C,0.301008894,5.4211606117,1.6455788126\C,1.1168900913
 ,5.4783968244,2.914992371\C,-0.2221034857,6.5148574791,1.0828158397\C,
 4.905087166,4.3344551286,-2.8166361838\C,5.2202399749,1.8730729789,-3.
 2418019816\H,4.303061877,3.1398401774,-0.4945265488\H,2.5059910111,1.3
 941125805,1.026027665\C,2.0267296979,-1.3168057272,0.0878431082\H,-0.6
 148381396,-0.8772464146,-0.0487062209\H,-1.1173445594,1.5979739179,0.9
 354529527\H,-1.785431967,1.1842136664,-0.6317060988\H,0.1568466587,3.2
 935842936,-6.4944076088\H,-1.2799414473,1.2973604148,-6.3634752435\H,-
 2.2715467732,2.0620530073,-5.1235628502\H,0.0610741188,5.024921175,-4.
 6392189098\H,-1.3257745087,5.1007948371,-5.7277099686\H,-1.5017781202,
 4.3519083185,-4.1328182157\H,3.099722457,0.6611243868,-1.8576353056\H,
 4.2104247935,0.6724356584,-0.4905341927\H,2.1371027451,4.8663151607,-0
 .301231599\H,-1.7429827524,3.8357689759,-0.1116200484\H,-0.3965407899,
 4.6674278038,-0.9207016321\H,-0.4072699985,3.4311587402,1.8753005726\H
 ,1.2458769343,6.5077220871,3.2622695397\H,0.6321738728,4.9048696011,3.
 7171228796\H,2.1064005962,5.0313689489,2.7661618415\H,-0.8236022714,6.
 4821630713,0.1801622684\H,-0.0715549131,7.4974075618,1.5231146454\H,5.
 1286557417,4.5444493188,-3.8676979651\H,5.8439937455,4.3782540517,-2.2
 526564401\H,4.2289782467,5.1014209943,-2.4344656649\H,5.5148815797,2.1
 286009907,-4.2643688026\H,6.126494726,1.8173468083,-2.6282948518\H,4.7
 495664439,0.8877534644,-3.2622959677\H,1.3288412976,-2.1581901675,0.13
 75557287\H,2.6943893793,-1.4861216077,-0.7665681411\H,2.655952461,-1.3
 455795607,0.9890647621\C,-2.5160299658,2.9029799145,-7.1097973276\H,-1
 .9176981465,3.1259534663,-8.0025879455\H,-3.32279671,2.2251415319,-7.4
 120397635\H,-2.9821301334,3.8376294018,-6.7784261096\\Version=EM64L-G0
 9RevB.01\State=1-A\HF=-1387.3172559\RMSD=7.181e-09\RMSF=4.591e-06\Dipo
 le=1.0832471,0.5371698,1.8102016\Quadrupole=3.7724605,-0.5154156,-3.25
 70449,-2.979204,-1.0722193,-3.3561407\PG=C01 [X(C26H34O5)]\\@


 A MAN SHOULD NEVER BE ASHAMED TO OWN HE HAS BEEN IN THE WRONG
 WHICH IS BUT SAYING IN OTHER WORDS,
 THAT HE IS WISER TODAY THAN HE WAS YESTERDAY.

                          -- JONATHAN SWIFT
 Job cpu time:  0 days  5 hours 24 minutes  0.9 seconds.
 File lengths (MBytes):  RWF=    186 Int=      0 D2E=      0 Chk=     20 Scr=      1
 Normal termination of Gaussian 09 at Wed Mar 24 16:23:40 2021.
