 Entering Gaussian System, Link 0=g09
 Initial command:
 /public/software/g09/g09/l1.exe /tmp/Gau-11627.inp -scrdir=/tmp/
 Entering Link 1 = /public/software/g09/g09/l1.exe PID=     11628.
  
 Copyright (c) 1988,1990,1992,1993,1995,1998,2003,2009,2010,
            Gaussian, Inc.  All Rights Reserved.
  
 This is part of the Gaussian(R) 09 program.  It is based on
 the Gaussian(R) 03 system (copyright 2003, Gaussian, Inc.),
 the Gaussian(R) 98 system (copyright 1998, Gaussian, Inc.),
 the Gaussian(R) 94 system (copyright 1995, Gaussian, Inc.),
 the Gaussian 92(TM) system (copyright 1992, Gaussian, Inc.),
 the Gaussian 90(TM) system (copyright 1990, Gaussian, Inc.),
 the Gaussian 88(TM) system (copyright 1988, Gaussian, Inc.),
 the Gaussian 86(TM) system (copyright 1986, Carnegie Mellon
 University), and the Gaussian 82(TM) system (copyright 1983,
 Carnegie Mellon University). Gaussian is a federally registered
 trademark of Gaussian, Inc.
  
 This software contains proprietary and confidential information,
 including trade secrets, belonging to Gaussian, Inc.
  
 This software is provided under written license and may be
 used, copied, transmitted, or stored only in accord with that
 written license.
  
 The following legend is applicable only to US Government
 contracts under FAR:
  
                    RESTRICTED RIGHTS LEGEND
  
 Use, reproduction and disclosure by the US Government is
 subject to restrictions as set forth in subparagraphs (a)
 and (c) of the Commercial Computer Software - Restricted
 Rights clause in FAR 52.227-19.
  
 Gaussian, Inc.
 340 Quinnipiac St., Bldg. 40, Wallingford CT 06492
  
  
 ---------------------------------------------------------------
 Warning -- This program may not be used in any manner that
 competes with the business of Gaussian, Inc. or will provide
 assistance to any competitor of Gaussian, Inc.  The licensee
 of this program is prohibited from giving any competitor of
 Gaussian, Inc. access to this program.  By using this program,
 the user acknowledges that Gaussian, Inc. is engaged in the
 business of creating and licensing software in the field of
 computational chemistry and represents and warrants to the
 licensee that it is not a competitor of Gaussian, Inc. and that
 it will not use this program in any manner prohibited above.
 ---------------------------------------------------------------
  

 Cite this work as:
 Gaussian 09, Revision B.01,
 M. J. Frisch, G. W. Trucks, H. B. Schlegel, G. E. Scuseria, 
 M. A. Robb, J. R. Cheeseman, G. Scalmani, V. Barone, B. Mennucci, 
 G. A. Petersson, H. Nakatsuji, M. Caricato, X. Li, H. P. Hratchian, 
 A. F. Izmaylov, J. Bloino, G. Zheng, J. L. Sonnenberg, M. Hada, 
 M. Ehara, K. Toyota, R. Fukuda, J. Hasegawa, M. Ishida, T. Nakajima, 
 Y. Honda, O. Kitao, H. Nakai, T. Vreven, J. A. Montgomery, Jr., 
 J. E. Peralta, F. Ogliaro, M. Bearpark, J. J. Heyd, E. Brothers, 
 K. N. Kudin, V. N. Staroverov, T. Keith, R. Kobayashi, J. Normand, 
 K. Raghavachari, A. Rendell, J. C. Burant, S. S. Iyengar, J. Tomasi, 
 M. Cossi, N. Rega, J. M. Millam, M. Klene, J. E. Knox, J. B. Cross, 
 V. Bakken, C. Adamo, J. Jaramillo, R. Gomperts, R. E. Stratmann, 
 O. Yazyev, A. J. Austin, R. Cammi, C. Pomelli, J. W. Ochterski, 
 R. L. Martin, K. Morokuma, V. G. Zakrzewski, G. A. Voth, 
 P. Salvador, J. J. Dannenberg, S. Dapprich, A. D. Daniels, 
 O. Farkas, J. B. Foresman, J. V. Ortiz, J. Cioslowski, 
 and D. J. Fox, Gaussian, Inc., Wallingford CT, 2010.
 
 ******************************************
 Gaussian 09:  EM64L-G09RevB.01 12-Aug-2010
                24-Mar-2021 
 ******************************************
 %mem=600MW
 %nprocshared=10
 Will use up to   10 processors via shared memory.
 ---------------------------------------
 # opt rb3lyp/6-31g(d) geom=connectivity
 ---------------------------------------
 1/14=-1,18=20,19=15,26=3,38=1,57=2/1,3;
 2/9=110,12=2,17=6,18=5,40=1/2;
 3/5=1,6=6,7=1,11=2,16=1,25=1,30=1,71=1,74=-5,116=1/1,2,3;
 4//1;
 5/5=2,38=5/2;
 6/7=2,8=2,9=2,10=2,28=1/1;
 7//1,2,3,16;
 1/14=-1,18=20,19=15/3(2);
 2/9=110/2;
 99//99;
 2/9=110/2;
 3/5=1,6=6,7=1,11=2,16=1,25=1,30=1,71=1,74=-5,116=1/1,2,3;
 4/5=5,16=3/1;
 5/5=2,38=5/2;
 7//1,2,3,16;
 1/14=-1,18=20,19=15/3(-5);
 2/9=110/2;
 6/7=2,8=2,9=2,10=2,19=2,28=1/1;
 99/9=1/99;
 -------------------
 Title Card Required
 -------------------
 Symbolic Z-matrix:
 Charge =  0 Multiplicity = 1
 C                     0.        0.        0. 
 C                     1.3413    0.        0. 
 C                     2.1356    1.2844    0. 
 C                     1.3371    2.5831   -0.3099 
 C                    -0.1602    2.4613   -0.6384 
 C                    -0.8336    1.2397    0.0179 
 C                     2.1389    3.2866   -1.4237 
 C                     1.7683    2.9009   -2.8146 
 C                     0.5459    2.4843   -3.1585 
 C                    -0.5189    2.4652   -2.1326 
 C                     0.2933    1.994    -4.5329 
 O                     0.0402    0.8021   -4.7075 
 C                     0.3144    3.0158   -5.6674 
 C                     0.8485    2.4022   -6.9711 
 C                    -1.1065    3.5409   -5.8682 
 O                    -1.6976    2.493    -2.4943 
 C                     3.5489    2.7376   -1.3809 
 C                     4.0418    2.9577   -2.8265 
 O                     2.8669    2.8161   -3.6655 
 C                     3.3083    1.2685   -0.9968 
 O                     2.0947    4.6986   -1.3084 
 C                    -0.7158    3.7546   -0.0336 
 C                     0.1337    3.9455    1.2148 
 O                     1.4366    3.4409    0.8701 
 C                     0.2906    5.3427    1.7703 
 C                     1.2333    5.4625    2.9411 
 C                    -0.3616    6.4287    1.3205 
 C                     4.6218    4.3632   -3.0516 
 C                     5.0843    1.9313   -3.2831 
 H                     4.187     3.2364   -0.6424 
 H                     2.5723    1.3781    1.0054 
 C                     2.1101   -1.2918    0.0917 
 H                    -0.5432   -0.9425    0.046 
 H                    -1.0948    1.4362    1.0648 
 H                    -1.7853    1.0134   -0.4795 
 H                     0.9585    3.8581   -5.3882 
 H                     0.2733    1.5082   -7.2413 
 H                     0.7199    3.1206   -7.7901 
 H                    -1.1381    4.2875   -6.6686 
 H                    -1.4824    4.0142   -4.9549 
 H                    -1.7974    2.7312   -6.1281 
 H                     3.0486    0.6582   -1.8704 
 H                     4.2089    0.8284   -0.5536 
 H                     2.1546    4.8907   -0.3503 
 H                    -0.5769    4.5804   -0.7428 
 H                    -1.7857    3.7068    0.1989 
 H                    -0.2505    3.3065    2.0196 
 H                     2.2567    5.2189    2.6384 
 H                     1.2458    6.4744    3.3603 
 H                     0.9331    4.7785    3.7417 
 H                    -0.2111    7.4046    1.7739 
 H                    -1.0679    6.3919    0.4983 
 H                     4.9514    4.4813   -4.0908 
 H                     5.4789    4.5488   -2.3962 
 H                     3.883     5.1526   -2.8915 
 H                     4.672     0.9187   -3.3316 
 H                     5.425     2.1525   -4.3016 
 H                     5.9567    1.9275   -2.6218 
 H                     1.4505   -2.1536    0.2403 
 H                     2.6822   -1.4706   -0.8236 
 H                     2.8038   -1.2603    0.9383 
 C                     2.3246    2.0357   -6.8887 
 H                     2.6699    1.6492   -7.8529 
 H                     2.9326    2.911    -6.639 
 H                     2.5053    1.2629   -6.1356 
 

 GradGradGradGradGradGradGradGradGradGradGradGradGradGradGradGradGradGrad
 Berny optimization.
 Initialization pass.
                           ----------------------------
                           !    Initial Parameters    !
                           ! (Angstroms and Degrees)  !
 --------------------------                            --------------------------
 ! Name  Definition              Value          Derivative Info.                !
 --------------------------------------------------------------------------------
 ! R1    R(1,2)                  1.3413         estimate D2E/DX2                !
 ! R2    R(1,6)                  1.494          estimate D2E/DX2                !
 ! R3    R(1,33)                 1.0888         estimate D2E/DX2                !
 ! R4    R(2,3)                  1.5102         estimate D2E/DX2                !
 ! R5    R(2,32)                 1.5061         estimate D2E/DX2                !
 ! R6    R(3,4)                  1.5557         estimate D2E/DX2                !
 ! R7    R(3,20)                 1.5392         estimate D2E/DX2                !
 ! R8    R(3,31)                 1.1001         estimate D2E/DX2                !
 ! R9    R(4,5)                  1.5377         estimate D2E/DX2                !
 ! R10   R(4,7)                  1.5422         estimate D2E/DX2                !
 ! R11   R(4,24)                 1.4622         estimate D2E/DX2                !
 ! R12   R(5,6)                  1.5416         estimate D2E/DX2                !
 ! R13   R(5,10)                 1.5367         estimate D2E/DX2                !
 ! R14   R(5,22)                 1.532          estimate D2E/DX2                !
 ! R15   R(6,34)                 1.0967         estimate D2E/DX2                !
 ! R16   R(6,35)                 1.0974         estimate D2E/DX2                !
 ! R17   R(7,8)                  1.4902         estimate D2E/DX2                !
 ! R18   R(7,17)                 1.5137         estimate D2E/DX2                !
 ! R19   R(7,21)                 1.4174         estimate D2E/DX2                !
 ! R20   R(8,9)                  1.3364         estimate D2E/DX2                !
 ! R21   R(8,19)                 1.3922         estimate D2E/DX2                !
 ! R22   R(9,10)                 1.4787         estimate D2E/DX2                !
 ! R23   R(9,11)                 1.4809         estimate D2E/DX2                !
 ! R24   R(10,16)                1.2333         estimate D2E/DX2                !
 ! R25   R(11,12)                1.2309         estimate D2E/DX2                !
 ! R26   R(11,13)                1.527          estimate D2E/DX2                !
 ! R27   R(13,14)                1.5367         estimate D2E/DX2                !
 ! R28   R(13,15)                1.5281         estimate D2E/DX2                !
 ! R29   R(13,36)                1.0965         estimate D2E/DX2                !
 ! R30   R(14,37)                1.0969         estimate D2E/DX2                !
 ! R31   R(14,38)                1.097          estimate D2E/DX2                !
 ! R32   R(14,62)                1.5231         estimate D2E/DX2                !
 ! R33   R(15,39)                1.095          estimate D2E/DX2                !
 ! R34   R(15,40)                1.0952         estimate D2E/DX2                !
 ! R35   R(15,41)                1.0957         estimate D2E/DX2                !
 ! R36   R(17,18)                1.5431         estimate D2E/DX2                !
 ! R37   R(17,20)                1.5374         estimate D2E/DX2                !
 ! R38   R(17,30)                1.0961         estimate D2E/DX2                !
 ! R39   R(18,19)                1.4506         estimate D2E/DX2                !
 ! R40   R(18,28)                1.537          estimate D2E/DX2                !
 ! R41   R(18,29)                1.5326         estimate D2E/DX2                !
 ! R42   R(20,42)                1.0969         estimate D2E/DX2                !
 ! R43   R(20,43)                1.096          estimate D2E/DX2                !
 ! R44   R(21,44)                0.979          estimate D2E/DX2                !
 ! R45   R(22,23)                1.522          estimate D2E/DX2                !
 ! R46   R(22,45)                1.0974         estimate D2E/DX2                !
 ! R47   R(22,46)                1.0959         estimate D2E/DX2                !
 ! R48   R(23,24)                1.4391         estimate D2E/DX2                !
 ! R49   R(23,25)                1.5117         estimate D2E/DX2                !
 ! R50   R(23,47)                1.0971         estimate D2E/DX2                !
 ! R51   R(25,26)                1.5079         estimate D2E/DX2                !
 ! R52   R(25,27)                1.3443         estimate D2E/DX2                !
 ! R53   R(26,48)                1.0947         estimate D2E/DX2                !
 ! R54   R(26,49)                1.0954         estimate D2E/DX2                !
 ! R55   R(26,50)                1.095          estimate D2E/DX2                !
 ! R56   R(27,51)                1.0866         estimate D2E/DX2                !
 ! R57   R(27,52)                1.0845         estimate D2E/DX2                !
 ! R58   R(28,53)                1.0966         estimate D2E/DX2                !
 ! R59   R(28,54)                1.0948         estimate D2E/DX2                !
 ! R60   R(28,55)                1.093          estimate D2E/DX2                !
 ! R61   R(29,56)                1.0944         estimate D2E/DX2                !
 ! R62   R(29,57)                1.0965         estimate D2E/DX2                !
 ! R63   R(29,58)                1.0947         estimate D2E/DX2                !
 ! R64   R(32,59)                1.0954         estimate D2E/DX2                !
 ! R65   R(32,60)                1.0941         estimate D2E/DX2                !
 ! R66   R(32,61)                1.095          estimate D2E/DX2                !
 ! R67   R(62,63)                1.0947         estimate D2E/DX2                !
 ! R68   R(62,64)                1.0946         estimate D2E/DX2                !
 ! R69   R(62,65)                1.0941         estimate D2E/DX2                !
 ! A1    A(2,1,6)              123.9149         estimate D2E/DX2                !
 ! A2    A(2,1,33)             119.9271         estimate D2E/DX2                !
 ! A3    A(6,1,33)             116.0664         estimate D2E/DX2                !
 ! A4    A(1,2,3)              121.7335         estimate D2E/DX2                !
 ! A5    A(1,2,32)             120.6953         estimate D2E/DX2                !
 ! A6    A(3,2,32)             117.4526         estimate D2E/DX2                !
 ! A7    A(2,3,4)              116.1058         estimate D2E/DX2                !
 ! A8    A(2,3,20)             113.0758         estimate D2E/DX2                !
 ! A9    A(2,3,31)             106.3331         estimate D2E/DX2                !
 ! A10   A(4,3,20)             105.7044         estimate D2E/DX2                !
 ! A11   A(4,3,31)             108.3419         estimate D2E/DX2                !
 ! A12   A(20,3,31)            106.8753         estimate D2E/DX2                !
 ! A13   A(3,4,5)              118.4376         estimate D2E/DX2                !
 ! A14   A(3,4,7)              104.9407         estimate D2E/DX2                !
 ! A15   A(3,4,24)             107.1001         estimate D2E/DX2                !
 ! A16   A(5,4,7)              112.8353         estimate D2E/DX2                !
 ! A17   A(5,4,24)             106.5657         estimate D2E/DX2                !
 ! A18   A(7,4,24)             106.2505         estimate D2E/DX2                !
 ! A19   A(4,5,6)              113.4003         estimate D2E/DX2                !
 ! A20   A(4,5,10)             115.7733         estimate D2E/DX2                !
 ! A21   A(4,5,22)             101.6494         estimate D2E/DX2                !
 ! A22   A(6,5,10)             108.3011         estimate D2E/DX2                !
 ! A23   A(6,5,22)             110.0273         estimate D2E/DX2                !
 ! A24   A(10,5,22)            107.2815         estimate D2E/DX2                !
 ! A25   A(1,6,5)              114.1239         estimate D2E/DX2                !
 ! A26   A(1,6,34)             107.0371         estimate D2E/DX2                !
 ! A27   A(1,6,35)             107.8984         estimate D2E/DX2                !
 ! A28   A(5,6,34)             111.6194         estimate D2E/DX2                !
 ! A29   A(5,6,35)             110.4423         estimate D2E/DX2                !
 ! A30   A(34,6,35)            105.2514         estimate D2E/DX2                !
 ! A31   A(4,7,8)              115.2601         estimate D2E/DX2                !
 ! A32   A(4,7,17)             107.3628         estimate D2E/DX2                !
 ! A33   A(4,7,21)             112.301          estimate D2E/DX2                !
 ! A34   A(8,7,17)              99.4491         estimate D2E/DX2                !
 ! A35   A(8,7,21)             109.0268         estimate D2E/DX2                !
 ! A36   A(17,7,21)            112.8334         estimate D2E/DX2                !
 ! A37   A(7,8,9)              123.2523         estimate D2E/DX2                !
 ! A38   A(7,8,19)             112.9539         estimate D2E/DX2                !
 ! A39   A(9,8,19)             123.0603         estimate D2E/DX2                !
 ! A40   A(8,9,10)             118.9557         estimate D2E/DX2                !
 ! A41   A(8,9,11)             119.8696         estimate D2E/DX2                !
 ! A42   A(10,9,11)            121.1155         estimate D2E/DX2                !
 ! A43   A(5,10,9)             120.4343         estimate D2E/DX2                !
 ! A44   A(5,10,16)            120.5535         estimate D2E/DX2                !
 ! A45   A(9,10,16)            118.9768         estimate D2E/DX2                !
 ! A46   A(9,11,12)            119.1627         estimate D2E/DX2                !
 ! A47   A(9,11,13)            117.7508         estimate D2E/DX2                !
 ! A48   A(12,11,13)           123.0528         estimate D2E/DX2                !
 ! A49   A(11,13,14)           111.5882         estimate D2E/DX2                !
 ! A50   A(11,13,15)           108.3448         estimate D2E/DX2                !
 ! A51   A(11,13,36)           109.4495         estimate D2E/DX2                !
 ! A52   A(14,13,15)           110.4212         estimate D2E/DX2                !
 ! A53   A(14,13,36)           108.5778         estimate D2E/DX2                !
 ! A54   A(15,13,36)           108.4036         estimate D2E/DX2                !
 ! A55   A(13,14,37)           110.6205         estimate D2E/DX2                !
 ! A56   A(13,14,38)           109.3387         estimate D2E/DX2                !
 ! A57   A(13,14,62)           112.7688         estimate D2E/DX2                !
 ! A58   A(37,14,38)           106.7606         estimate D2E/DX2                !
 ! A59   A(37,14,62)           108.9908         estimate D2E/DX2                !
 ! A60   A(38,14,62)           108.1541         estimate D2E/DX2                !
 ! A61   A(13,15,39)           110.9273         estimate D2E/DX2                !
 ! A62   A(13,15,40)           110.9823         estimate D2E/DX2                !
 ! A63   A(13,15,41)           111.3196         estimate D2E/DX2                !
 ! A64   A(39,15,40)           107.7578         estimate D2E/DX2                !
 ! A65   A(39,15,41)           108.1966         estimate D2E/DX2                !
 ! A66   A(40,15,41)           107.5026         estimate D2E/DX2                !
 ! A67   A(7,17,18)            102.6689         estimate D2E/DX2                !
 ! A68   A(7,17,20)            101.9968         estimate D2E/DX2                !
 ! A69   A(7,17,30)            113.3461         estimate D2E/DX2                !
 ! A70   A(18,17,20)           114.8556         estimate D2E/DX2                !
 ! A71   A(18,17,30)           112.3543         estimate D2E/DX2                !
 ! A72   A(20,17,30)           110.955          estimate D2E/DX2                !
 ! A73   A(17,18,19)           105.6162         estimate D2E/DX2                !
 ! A74   A(17,18,28)           112.8399         estimate D2E/DX2                !
 ! A75   A(17,18,29)           113.6319         estimate D2E/DX2                !
 ! A76   A(19,18,28)           108.0699         estimate D2E/DX2                !
 ! A77   A(19,18,29)           108.2548         estimate D2E/DX2                !
 ! A78   A(28,18,29)           108.1854         estimate D2E/DX2                !
 ! A79   A(8,19,18)            106.2413         estimate D2E/DX2                !
 ! A80   A(3,20,17)            105.7332         estimate D2E/DX2                !
 ! A81   A(3,20,42)            109.9473         estimate D2E/DX2                !
 ! A82   A(3,20,43)            111.6127         estimate D2E/DX2                !
 ! A83   A(17,20,42)           111.7004         estimate D2E/DX2                !
 ! A84   A(17,20,43)           110.8634         estimate D2E/DX2                !
 ! A85   A(42,20,43)           107.0499         estimate D2E/DX2                !
 ! A86   A(7,21,44)            105.8533         estimate D2E/DX2                !
 ! A87   A(5,22,23)            103.1362         estimate D2E/DX2                !
 ! A88   A(5,22,45)            109.526          estimate D2E/DX2                !
 ! A89   A(5,22,46)            113.6395         estimate D2E/DX2                !
 ! A90   A(23,22,45)           111.411          estimate D2E/DX2                !
 ! A91   A(23,22,46)           112.1075         estimate D2E/DX2                !
 ! A92   A(45,22,46)           107.0678         estimate D2E/DX2                !
 ! A93   A(22,23,24)           105.3593         estimate D2E/DX2                !
 ! A94   A(22,23,25)           118.3751         estimate D2E/DX2                !
 ! A95   A(22,23,47)           109.4617         estimate D2E/DX2                !
 ! A96   A(24,23,25)           108.5493         estimate D2E/DX2                !
 ! A97   A(24,23,47)           106.7703         estimate D2E/DX2                !
 ! A98   A(25,23,47)           107.7644         estimate D2E/DX2                !
 ! A99   A(4,24,23)            109.7176         estimate D2E/DX2                !
 ! A100  A(23,25,26)           115.0633         estimate D2E/DX2                !
 ! A101  A(23,25,27)           124.9843         estimate D2E/DX2                !
 ! A102  A(26,25,27)           119.929          estimate D2E/DX2                !
 ! A103  A(25,26,48)           110.6147         estimate D2E/DX2                !
 ! A104  A(25,26,49)           112.1896         estimate D2E/DX2                !
 ! A105  A(25,26,50)           110.2842         estimate D2E/DX2                !
 ! A106  A(48,26,49)           107.5015         estimate D2E/DX2                !
 ! A107  A(48,26,50)           108.6318         estimate D2E/DX2                !
 ! A108  A(49,26,50)           107.4809         estimate D2E/DX2                !
 ! A109  A(25,27,51)           121.2498         estimate D2E/DX2                !
 ! A110  A(25,27,52)           122.8347         estimate D2E/DX2                !
 ! A111  A(51,27,52)           115.9143         estimate D2E/DX2                !
 ! A112  A(18,28,53)           110.5291         estimate D2E/DX2                !
 ! A113  A(18,28,54)           111.27           estimate D2E/DX2                !
 ! A114  A(18,28,55)           112.5763         estimate D2E/DX2                !
 ! A115  A(53,28,54)           108.2851         estimate D2E/DX2                !
 ! A116  A(53,28,55)           105.3193         estimate D2E/DX2                !
 ! A117  A(54,28,55)           108.6057         estimate D2E/DX2                !
 ! A118  A(18,29,56)           112.1234         estimate D2E/DX2                !
 ! A119  A(18,29,57)           110.6699         estimate D2E/DX2                !
 ! A120  A(18,29,58)           111.3728         estimate D2E/DX2                !
 ! A121  A(56,29,57)           105.2211         estimate D2E/DX2                !
 ! A122  A(56,29,58)           108.8921         estimate D2E/DX2                !
 ! A123  A(57,29,58)           108.312          estimate D2E/DX2                !
 ! A124  A(2,32,59)            112.0678         estimate D2E/DX2                !
 ! A125  A(2,32,60)            110.8646         estimate D2E/DX2                !
 ! A126  A(2,32,61)            110.2309         estimate D2E/DX2                !
 ! A127  A(59,32,60)           107.4449         estimate D2E/DX2                !
 ! A128  A(59,32,61)           107.4119         estimate D2E/DX2                !
 ! A129  A(60,32,61)           108.6782         estimate D2E/DX2                !
 ! A130  A(14,62,63)           110.0598         estimate D2E/DX2                !
 ! A131  A(14,62,64)           110.9911         estimate D2E/DX2                !
 ! A132  A(14,62,65)           111.5465         estimate D2E/DX2                !
 ! A133  A(63,62,64)           107.9421         estimate D2E/DX2                !
 ! A134  A(63,62,65)           107.7465         estimate D2E/DX2                !
 ! A135  A(64,62,65)           108.425          estimate D2E/DX2                !
 ! D1    D(6,1,2,3)             -0.8272         estimate D2E/DX2                !
 ! D2    D(6,1,2,32)           175.1124         estimate D2E/DX2                !
 ! D3    D(33,1,2,3)          -177.2058         estimate D2E/DX2                !
 ! D4    D(33,1,2,32)           -1.2662         estimate D2E/DX2                !
 ! D5    D(2,1,6,5)             28.6172         estimate D2E/DX2                !
 ! D6    D(2,1,6,34)           -95.4009         estimate D2E/DX2                !
 ! D7    D(2,1,6,35)           151.7634         estimate D2E/DX2                !
 ! D8    D(33,1,6,5)          -154.8766         estimate D2E/DX2                !
 ! D9    D(33,1,6,34)           81.1053         estimate D2E/DX2                !
 ! D10   D(33,1,6,35)          -31.7304         estimate D2E/DX2                !
 ! D11   D(1,2,3,4)            -12.8166         estimate D2E/DX2                !
 ! D12   D(1,2,3,20)          -135.256          estimate D2E/DX2                !
 ! D13   D(1,2,3,31)           107.7655         estimate D2E/DX2                !
 ! D14   D(32,2,3,4)           171.1178         estimate D2E/DX2                !
 ! D15   D(32,2,3,20)           48.6784         estimate D2E/DX2                !
 ! D16   D(32,2,3,31)          -68.3001         estimate D2E/DX2                !
 ! D17   D(1,2,32,59)           -4.9281         estimate D2E/DX2                !
 ! D18   D(1,2,32,60)          115.119          estimate D2E/DX2                !
 ! D19   D(1,2,32,61)         -124.5011         estimate D2E/DX2                !
 ! D20   D(3,2,32,59)          171.1806         estimate D2E/DX2                !
 ! D21   D(3,2,32,60)          -68.7724         estimate D2E/DX2                !
 ! D22   D(3,2,32,61)           51.6076         estimate D2E/DX2                !
 ! D23   D(2,3,4,5)             -2.2054         estimate D2E/DX2                !
 ! D24   D(2,3,4,7)           -129.1675         estimate D2E/DX2                !
 ! D25   D(2,3,4,24)           118.1816         estimate D2E/DX2                !
 ! D26   D(20,3,4,5)           124.0355         estimate D2E/DX2                !
 ! D27   D(20,3,4,7)            -2.9266         estimate D2E/DX2                !
 ! D28   D(20,3,4,24)         -115.5775         estimate D2E/DX2                !
 ! D29   D(31,3,4,5)          -121.7029         estimate D2E/DX2                !
 ! D30   D(31,3,4,7)           111.3349         estimate D2E/DX2                !
 ! D31   D(31,3,4,24)           -1.316          estimate D2E/DX2                !
 ! D32   D(2,3,20,17)          152.9621         estimate D2E/DX2                !
 ! D33   D(2,3,20,42)           32.2381         estimate D2E/DX2                !
 ! D34   D(2,3,20,43)          -86.401          estimate D2E/DX2                !
 ! D35   D(4,3,20,17)           24.8912         estimate D2E/DX2                !
 ! D36   D(4,3,20,42)          -95.8328         estimate D2E/DX2                !
 ! D37   D(4,3,20,43)          145.5281         estimate D2E/DX2                !
 ! D38   D(31,3,20,17)         -90.3793         estimate D2E/DX2                !
 ! D39   D(31,3,20,42)         148.8967         estimate D2E/DX2                !
 ! D40   D(31,3,20,43)          30.2576         estimate D2E/DX2                !
 ! D41   D(3,4,5,6)             28.1983         estimate D2E/DX2                !
 ! D42   D(3,4,5,10)           -97.8804         estimate D2E/DX2                !
 ! D43   D(3,4,5,22)           146.2472         estimate D2E/DX2                !
 ! D44   D(7,4,5,6)            151.303          estimate D2E/DX2                !
 ! D45   D(7,4,5,10)            25.2242         estimate D2E/DX2                !
 ! D46   D(7,4,5,22)           -90.6482         estimate D2E/DX2                !
 ! D47   D(24,4,5,6)           -92.4629         estimate D2E/DX2                !
 ! D48   D(24,4,5,10)          141.4584         estimate D2E/DX2                !
 ! D49   D(24,4,5,22)           25.586          estimate D2E/DX2                !
 ! D50   D(3,4,7,8)             89.1796         estimate D2E/DX2                !
 ! D51   D(3,4,7,17)           -20.5588         estimate D2E/DX2                !
 ! D52   D(3,4,7,21)          -145.1481         estimate D2E/DX2                !
 ! D53   D(5,4,7,8)            -41.1468         estimate D2E/DX2                !
 ! D54   D(5,4,7,17)          -150.8852         estimate D2E/DX2                !
 ! D55   D(5,4,7,21)            84.5256         estimate D2E/DX2                !
 ! D56   D(24,4,7,8)          -157.5685         estimate D2E/DX2                !
 ! D57   D(24,4,7,17)           92.6931         estimate D2E/DX2                !
 ! D58   D(24,4,7,21)          -31.8962         estimate D2E/DX2                !
 ! D59   D(3,4,24,23)         -132.7267         estimate D2E/DX2                !
 ! D60   D(5,4,24,23)           -5.0422         estimate D2E/DX2                !
 ! D61   D(7,4,24,23)          115.5181         estimate D2E/DX2                !
 ! D62   D(4,5,6,1)            -40.4571         estimate D2E/DX2                !
 ! D63   D(4,5,6,34)            81.0633         estimate D2E/DX2                !
 ! D64   D(4,5,6,35)          -162.2122         estimate D2E/DX2                !
 ! D65   D(10,5,6,1)            89.4948         estimate D2E/DX2                !
 ! D66   D(10,5,6,34)         -148.9848         estimate D2E/DX2                !
 ! D67   D(10,5,6,35)          -32.2603         estimate D2E/DX2                !
 ! D68   D(22,5,6,1)          -153.5309         estimate D2E/DX2                !
 ! D69   D(22,5,6,34)          -32.0106         estimate D2E/DX2                !
 ! D70   D(22,5,6,35)           84.7139         estimate D2E/DX2                !
 ! D71   D(4,5,10,9)             4.3437         estimate D2E/DX2                !
 ! D72   D(4,5,10,16)         -173.4693         estimate D2E/DX2                !
 ! D73   D(6,5,10,9)          -124.281          estimate D2E/DX2                !
 ! D74   D(6,5,10,16)           57.906          estimate D2E/DX2                !
 ! D75   D(22,5,10,9)          116.9903         estimate D2E/DX2                !
 ! D76   D(22,5,10,16)         -60.8227         estimate D2E/DX2                !
 ! D77   D(4,5,22,23)          -35.7047         estimate D2E/DX2                !
 ! D78   D(4,5,22,45)           83.0133         estimate D2E/DX2                !
 ! D79   D(4,5,22,46)         -157.3062         estimate D2E/DX2                !
 ! D80   D(6,5,22,23)           84.7432         estimate D2E/DX2                !
 ! D81   D(6,5,22,45)         -156.5388         estimate D2E/DX2                !
 ! D82   D(6,5,22,46)          -36.8583         estimate D2E/DX2                !
 ! D83   D(10,5,22,23)        -157.6484         estimate D2E/DX2                !
 ! D84   D(10,5,22,45)         -38.9304         estimate D2E/DX2                !
 ! D85   D(10,5,22,46)          80.7501         estimate D2E/DX2                !
 ! D86   D(4,7,8,9)             28.3034         estimate D2E/DX2                !
 ! D87   D(4,7,8,19)          -142.1411         estimate D2E/DX2                !
 ! D88   D(17,7,8,9)           142.6995         estimate D2E/DX2                !
 ! D89   D(17,7,8,19)          -27.745          estimate D2E/DX2                !
 ! D90   D(21,7,8,9)           -99.0377         estimate D2E/DX2                !
 ! D91   D(21,7,8,19)           90.5178         estimate D2E/DX2                !
 ! D92   D(4,7,17,18)          154.7571         estimate D2E/DX2                !
 ! D93   D(4,7,17,20)           35.5343         estimate D2E/DX2                !
 ! D94   D(4,7,17,30)          -83.8025         estimate D2E/DX2                !
 ! D95   D(8,7,17,18)           34.4067         estimate D2E/DX2                !
 ! D96   D(8,7,17,20)          -84.8162         estimate D2E/DX2                !
 ! D97   D(8,7,17,30)          155.847          estimate D2E/DX2                !
 ! D98   D(21,7,17,18)         -80.9764         estimate D2E/DX2                !
 ! D99   D(21,7,17,20)         159.8007         estimate D2E/DX2                !
 ! D100  D(21,7,17,30)          40.4639         estimate D2E/DX2                !
 ! D101  D(4,7,21,44)           39.2577         estimate D2E/DX2                !
 ! D102  D(8,7,21,44)          168.2579         estimate D2E/DX2                !
 ! D103  D(17,7,21,44)         -82.2534         estimate D2E/DX2                !
 ! D104  D(7,8,9,10)             3.2034         estimate D2E/DX2                !
 ! D105  D(7,8,9,11)          -174.0296         estimate D2E/DX2                !
 ! D106  D(19,8,9,10)          172.6945         estimate D2E/DX2                !
 ! D107  D(19,8,9,11)           -4.5385         estimate D2E/DX2                !
 ! D108  D(7,8,19,18)            7.9474         estimate D2E/DX2                !
 ! D109  D(9,8,19,18)         -162.5182         estimate D2E/DX2                !
 ! D110  D(8,9,10,5)           -20.1685         estimate D2E/DX2                !
 ! D111  D(8,9,10,16)          157.6786         estimate D2E/DX2                !
 ! D112  D(11,9,10,5)          157.0288         estimate D2E/DX2                !
 ! D113  D(11,9,10,16)         -25.124          estimate D2E/DX2                !
 ! D114  D(8,9,11,12)          112.005          estimate D2E/DX2                !
 ! D115  D(8,9,11,13)          -70.0421         estimate D2E/DX2                !
 ! D116  D(10,9,11,12)         -65.167          estimate D2E/DX2                !
 ! D117  D(10,9,11,13)         112.7859         estimate D2E/DX2                !
 ! D118  D(9,11,13,14)         146.8474         estimate D2E/DX2                !
 ! D119  D(9,11,13,15)         -91.3807         estimate D2E/DX2                !
 ! D120  D(9,11,13,36)          26.6427         estimate D2E/DX2                !
 ! D121  D(12,11,13,14)        -35.2853         estimate D2E/DX2                !
 ! D122  D(12,11,13,15)         86.4865         estimate D2E/DX2                !
 ! D123  D(12,11,13,36)       -155.49           estimate D2E/DX2                !
 ! D124  D(11,13,14,37)         54.9969         estimate D2E/DX2                !
 ! D125  D(11,13,14,38)        172.2934         estimate D2E/DX2                !
 ! D126  D(11,13,14,62)        -67.3477         estimate D2E/DX2                !
 ! D127  D(15,13,14,37)        -65.5671         estimate D2E/DX2                !
 ! D128  D(15,13,14,38)         51.7294         estimate D2E/DX2                !
 ! D129  D(15,13,14,62)        172.0883         estimate D2E/DX2                !
 ! D130  D(36,13,14,37)        175.7123         estimate D2E/DX2                !
 ! D131  D(36,13,14,38)        -66.9911         estimate D2E/DX2                !
 ! D132  D(36,13,14,62)         53.3678         estimate D2E/DX2                !
 ! D133  D(11,13,15,39)        179.4081         estimate D2E/DX2                !
 ! D134  D(11,13,15,40)         59.6472         estimate D2E/DX2                !
 ! D135  D(11,13,15,41)        -60.0519         estimate D2E/DX2                !
 ! D136  D(14,13,15,39)        -58.1065         estimate D2E/DX2                !
 ! D137  D(14,13,15,40)       -177.8675         estimate D2E/DX2                !
 ! D138  D(14,13,15,41)         62.4335         estimate D2E/DX2                !
 ! D139  D(36,13,15,39)         60.7201         estimate D2E/DX2                !
 ! D140  D(36,13,15,40)        -59.0408         estimate D2E/DX2                !
 ! D141  D(36,13,15,41)       -178.7399         estimate D2E/DX2                !
 ! D142  D(13,14,62,63)       -177.2563         estimate D2E/DX2                !
 ! D143  D(13,14,62,64)        -57.8259         estimate D2E/DX2                !
 ! D144  D(13,14,62,65)         63.2023         estimate D2E/DX2                !
 ! D145  D(37,14,62,63)         59.4883         estimate D2E/DX2                !
 ! D146  D(37,14,62,64)        178.9187         estimate D2E/DX2                !
 ! D147  D(37,14,62,65)        -60.053          estimate D2E/DX2                !
 ! D148  D(38,14,62,63)        -56.2203         estimate D2E/DX2                !
 ! D149  D(38,14,62,64)         63.2101         estimate D2E/DX2                !
 ! D150  D(38,14,62,65)       -175.7616         estimate D2E/DX2                !
 ! D151  D(7,17,18,19)         -32.2802         estimate D2E/DX2                !
 ! D152  D(7,17,18,28)          85.5719         estimate D2E/DX2                !
 ! D153  D(7,17,18,29)        -150.7909         estimate D2E/DX2                !
 ! D154  D(20,17,18,19)         77.5311         estimate D2E/DX2                !
 ! D155  D(20,17,18,28)       -164.6167         estimate D2E/DX2                !
 ! D156  D(20,17,18,29)        -40.9795         estimate D2E/DX2                !
 ! D157  D(30,17,18,19)       -154.3952         estimate D2E/DX2                !
 ! D158  D(30,17,18,28)        -36.5431         estimate D2E/DX2                !
 ! D159  D(30,17,18,29)         87.0941         estimate D2E/DX2                !
 ! D160  D(7,17,20,3)          -37.0438         estimate D2E/DX2                !
 ! D161  D(7,17,20,42)          82.5322         estimate D2E/DX2                !
 ! D162  D(7,17,20,43)        -158.1676         estimate D2E/DX2                !
 ! D163  D(18,17,20,3)        -147.2586         estimate D2E/DX2                !
 ! D164  D(18,17,20,42)        -27.6826         estimate D2E/DX2                !
 ! D165  D(18,17,20,43)         91.6176         estimate D2E/DX2                !
 ! D166  D(30,17,20,3)          83.9674         estimate D2E/DX2                !
 ! D167  D(30,17,20,42)       -156.4566         estimate D2E/DX2                !
 ! D168  D(30,17,20,43)        -37.1564         estimate D2E/DX2                !
 ! D169  D(17,18,19,8)          15.4472         estimate D2E/DX2                !
 ! D170  D(28,18,19,8)        -105.5597         estimate D2E/DX2                !
 ! D171  D(29,18,19,8)         137.4848         estimate D2E/DX2                !
 ! D172  D(17,18,28,53)       -179.4937         estimate D2E/DX2                !
 ! D173  D(17,18,28,54)         60.1562         estimate D2E/DX2                !
 ! D174  D(17,18,28,55)        -62.028          estimate D2E/DX2                !
 ! D175  D(19,18,28,53)        -63.0916         estimate D2E/DX2                !
 ! D176  D(19,18,28,54)        176.5583         estimate D2E/DX2                !
 ! D177  D(19,18,28,55)         54.3741         estimate D2E/DX2                !
 ! D178  D(29,18,28,53)         53.9088         estimate D2E/DX2                !
 ! D179  D(29,18,28,54)        -66.4413         estimate D2E/DX2                !
 ! D180  D(29,18,28,55)        171.3745         estimate D2E/DX2                !
 ! D181  D(17,18,29,56)         64.7696         estimate D2E/DX2                !
 ! D182  D(17,18,29,57)       -178.0829         estimate D2E/DX2                !
 ! D183  D(17,18,29,58)        -57.5356         estimate D2E/DX2                !
 ! D184  D(19,18,29,56)        -52.2136         estimate D2E/DX2                !
 ! D185  D(19,18,29,57)         64.9339         estimate D2E/DX2                !
 ! D186  D(19,18,29,58)       -174.5188         estimate D2E/DX2                !
 ! D187  D(28,18,29,56)       -169.0946         estimate D2E/DX2                !
 ! D188  D(28,18,29,57)        -51.9471         estimate D2E/DX2                !
 ! D189  D(28,18,29,58)         68.6002         estimate D2E/DX2                !
 ! D190  D(5,22,23,24)          33.9364         estimate D2E/DX2                !
 ! D191  D(5,22,23,25)         155.4914         estimate D2E/DX2                !
 ! D192  D(5,22,23,47)         -80.5464         estimate D2E/DX2                !
 ! D193  D(45,22,23,24)        -83.4616         estimate D2E/DX2                !
 ! D194  D(45,22,23,25)         38.0935         estimate D2E/DX2                !
 ! D195  D(45,22,23,47)        162.0557         estimate D2E/DX2                !
 ! D196  D(46,22,23,24)        156.5675         estimate D2E/DX2                !
 ! D197  D(46,22,23,25)        -81.8774         estimate D2E/DX2                !
 ! D198  D(46,22,23,47)         42.0848         estimate D2E/DX2                !
 ! D199  D(22,23,24,4)         -18.1003         estimate D2E/DX2                !
 ! D200  D(25,23,24,4)        -145.8361         estimate D2E/DX2                !
 ! D201  D(47,23,24,4)          98.2362         estimate D2E/DX2                !
 ! D202  D(22,23,25,26)       -175.3779         estimate D2E/DX2                !
 ! D203  D(22,23,25,27)          6.3932         estimate D2E/DX2                !
 ! D204  D(24,23,25,26)        -55.4586         estimate D2E/DX2                !
 ! D205  D(24,23,25,27)        126.3125         estimate D2E/DX2                !
 ! D206  D(47,23,25,26)         59.8244         estimate D2E/DX2                !
 ! D207  D(47,23,25,27)       -118.4046         estimate D2E/DX2                !
 ! D208  D(23,25,26,48)         64.9189         estimate D2E/DX2                !
 ! D209  D(23,25,26,49)       -175.0522         estimate D2E/DX2                !
 ! D210  D(23,25,26,50)        -55.2759         estimate D2E/DX2                !
 ! D211  D(27,25,26,48)       -116.7554         estimate D2E/DX2                !
 ! D212  D(27,25,26,49)          3.2735         estimate D2E/DX2                !
 ! D213  D(27,25,26,50)        123.0498         estimate D2E/DX2                !
 ! D214  D(23,25,27,51)        179.2461         estimate D2E/DX2                !
 ! D215  D(23,25,27,52)         -0.3256         estimate D2E/DX2                !
 ! D216  D(26,25,27,51)          1.0973         estimate D2E/DX2                !
 ! D217  D(26,25,27,52)       -178.4744         estimate D2E/DX2                !
 --------------------------------------------------------------------------------
 Trust Radius=3.00D-01 FncErr=1.00D-07 GrdErr=1.00D-06
 Number of steps in this run=    390 maximum allowed number of steps=    390.
 GradGradGradGradGradGradGradGradGradGradGradGradGradGradGradGradGradGrad

 Stoichiometry    C26H34O5
 Framework group  C1[X(C26H34O5)]
 Deg. of freedom   189
 Full point group                 C1      NOp   1
 Largest Abelian subgroup         C1      NOp   1
 Largest concise Abelian subgroup C1      NOp   1
                         Standard orientation:                         
 ---------------------------------------------------------------------
 Center     Atomic      Atomic             Coordinates (Angstroms)
 Number     Number       Type             X           Y           Z
 ---------------------------------------------------------------------
      1          6           0       -1.383940   -0.141018    3.223431
      2          6           0       -1.228537    1.125187    2.809112
      3          6           0       -1.402786    1.513901    1.360273
      4          6           0       -1.463507    0.341481    0.339485
      5          6           0       -1.292632   -1.094444    0.862529
      6          6           0       -1.754917   -1.273406    2.322245
      7          6           0       -0.434524    0.708357   -0.749065
      8          6           0        0.953605    0.226879   -0.500091
      9          6           0        1.232406   -0.869310    0.211754
     10          6           0        0.116450   -1.692056    0.725920
     11          6           0        2.639864   -1.207138    0.524981
     12          8           0        3.027244   -1.141095    1.691491
     13          6           0        3.532514   -1.670318   -0.624041
     14          6           0        4.988004   -1.218621   -0.426755
     15          6           0        3.454083   -3.193959   -0.709910
     16          8           0        0.325475   -2.875010    1.004959
     17          6           0       -0.198921    2.201157   -0.663209
     18          6           0        1.216796    2.355070   -1.257524
     19          8           0        1.925023    1.140949   -0.898795
     20          6           0       -0.295340    2.453368    0.850319
     21          8           0       -0.844376    0.289541   -2.039649
     22          6           0       -2.212621   -1.878168   -0.079010
     23          6           0       -3.366457   -0.914429   -0.316632
     24          8           0       -2.776054    0.397902   -0.302511
     25          6           0       -4.177546   -1.063264   -1.583655
     26          6           0       -5.230464   -0.004946   -1.796104
     27          6           0       -4.041324   -2.061920   -2.473156
     28          6           0        1.211272    2.468581   -2.790360
     29          6           0        1.993905    3.548973   -0.692295
     30          1           0       -0.945771    2.790756   -1.207216
     31          1           0       -2.348250    2.073338    1.301597
     32          6           0       -0.960730    2.229968    3.797012
     33          1           0       -1.296163   -0.380878    4.281851
     34          1           0       -2.842865   -1.394536    2.389592
     35          1           0       -1.335097   -2.194049    2.747119
     36          1           0        3.161306   -1.250906   -1.566689
     37          1           0        5.369171   -1.556901    0.544521
     38          1           0        5.619736   -1.683362   -1.193780
     39          1           0        4.073140   -3.571849   -1.530287
     40          1           0        2.425239   -3.524250   -0.888290
     41          1           0        3.794363   -3.663385    0.219796
     42          1           0        0.649701    2.229015    1.359877
     43          1           0       -0.530277    3.503779    1.056805
     44          1           0       -1.807950    0.457445   -2.081851
     45          1           0       -1.678820   -2.101630   -1.011386
     46          1           0       -2.552517   -2.834600    0.334193
     47          1           0       -4.060269   -0.958552    0.532080
     48          1           0       -4.767352    0.977401   -1.933353
     49          1           0       -5.846005   -0.205294   -2.679731
     50          1           0       -5.901136    0.042154   -0.931860
     51          1           0       -4.666635   -2.115969   -3.360099
     52          1           0       -3.316851   -2.860241   -2.354631
     53          1           0        2.234443    2.567158   -3.172360
     54          1           0        0.635449    3.338634   -3.122102
     55          1           0        0.806500    1.576833   -3.275700
     56          1           0        2.203176    3.436083    0.375958
     57          1           0        2.976879    3.632614   -1.170952
     58          1           0        1.453389    4.487738   -0.850332
     59          1           0       -1.002835    1.875245    4.832508
     60          1           0        0.031734    2.662329    3.638513
     61          1           0       -1.709267    3.022096    3.691327
     62          6           0        5.154963    0.292103   -0.525860
     63          1           0        6.211710    0.560317   -0.427664
     64          1           0        4.801387    0.663065   -1.493090
     65          1           0        4.604559    0.809947    0.265294
 ---------------------------------------------------------------------
 Rotational constants (GHZ):      0.2103246      0.1251131      0.1196256
 Standard basis: 6-31G(d) (6D, 7F)
 There are   533 symmetry adapted basis functions of A   symmetry.
 Integral buffers will be    131072 words long.
 Raffenetti 2 integral format.
 Two-electron integral symmetry is turned on.
   533 basis functions,  1004 primitive gaussians,   533 cartesian basis functions
   115 alpha electrons      115 beta electrons
       nuclear repulsion energy      3533.8783689486 Hartrees.
 NAtoms=   65 NActive=   65 NUniq=   65 SFac= 1.00D+00 NAtFMM=   50 NAOKFM=T Big=T
 One-electron integrals computed using PRISM.
 NBasis=   533 RedAO= T  NBF=   533
 NBsUse=   533 1.00D-06 NBFU=   533
 Harris functional with IExCor=  402 diagonalized for initial guess.
 ExpMin= 1.61D-01 ExpMax= 5.48D+03 ExpMxC= 8.25D+02 IAcc=1 IRadAn=         1 AccDes= 0.00D+00
 HarFok:  IExCor=  402 AccDes= 0.00D+00 IRadAn=         1 IDoV= 1
 ScaDFX=  1.000000  1.000000  1.000000  1.000000
 FoFCou: FMM=F IPFlag=           0 FMFlag=      100000 FMFlg1=        2001
         NFxFlg=           0 DoJE=T BraDBF=F KetDBF=T FulRan=T
         Omega=  0.000000  0.000000  1.000000  0.000000  0.000000 ICntrl=     500 IOpCl=  0
         NMat0=    1 NMatS0=    1 NMatT0=    0 NMatD0=    1 NMtDS0=    0 NMtDT0=    0
         I1Cent=           4 NGrid=           0.
 Petite list used in FoFCou.
 Initial guess orbital symmetries:
       Occupied  (A) (A) (A) (A) (A) (A) (A) (A) (A) (A) (A) (A)
                 (A) (A) (A) (A) (A) (A) (A) (A) (A) (A) (A) (A)
                 (A) (A) (A) (A) (A) (A) (A) (A) (A) (A) (A) (A)
                 (A) (A) (A) (A) (A) (A) (A) (A) (A) (A) (A) (A)
                 (A) (A) (A) (A) (A) (A) (A) (A) (A) (A) (A) (A)
                 (A) (A) (A) (A) (A) (A) (A) (A) (A) (A) (A) (A)
                 (A) (A) (A) (A) (A) (A) (A) (A) (A) (A) (A) (A)
                 (A) (A) (A) (A) (A) (A) (A) (A) (A) (A) (A) (A)
                 (A) (A) (A) (A) (A) (A) (A) (A) (A) (A) (A) (A)
                 (A) (A) (A) (A) (A) (A) (A)
       Virtual   (A) (A) (A) (A) (A) (A) (A) (A) (A) (A) (A) (A)
                 (A) (A) (A) (A) (A) (A) (A) (A) (A) (A) (A) (A)
                 (A) (A) (A) (A) (A) (A) (A) (A) (A) (A) (A) (A)
                 (A) (A) (A) (A) (A) (A) (A) (A) (A) (A) (A) (A)
                 (A) (A) (A) (A) (A) (A) (A) (A) (A) (A) (A) (A)
                 (A) (A) (A) (A) (A) (A) (A) (A) (A) (A) (A) (A)
                 (A) (A) (A) (A) (A) (A) (A) (A) (A) (A) (A) (A)
                 (A) (A) (A) (A) (A) (A) (A) (A) (A) (A) (A) (A)
                 (A) (A) (A) (A) (A) (A) (A) (A) (A) (A) (A) (A)
                 (A) (A) (A) (A) (A) (A) (A) (A) (A) (A) (A) (A)
                 (A) (A) (A) (A) (A) (A) (A) (A) (A) (A) (A) (A)
                 (A) (A) (A) (A) (A) (A) (A) (A) (A) (A) (A) (A)
                 (A) (A) (A) (A) (A) (A) (A) (A) (A) (A) (A) (A)
                 (A) (A) (A) (A) (A) (A) (A) (A) (A) (A) (A) (A)
                 (A) (A) (A) (A) (A) (A) (A) (A) (A) (A) (A) (A)
                 (A) (A) (A) (A) (A) (A) (A) (A) (A) (A) (A) (A)
                 (A) (A) (A) (A) (A) (A) (A) (A) (A) (A) (A) (A)
                 (A) (A) (A) (A) (A) (A) (A) (A) (A) (A) (A) (A)
                 (A) (A) (A) (A) (A) (A) (A) (A) (A) (A) (A) (A)
                 (A) (A) (A) (A) (A) (A) (A) (A) (A) (A) (A) (A)
                 (A) (A) (A) (A) (A) (A) (A) (A) (A) (A) (A) (A)
                 (A) (A) (A) (A) (A) (A) (A) (A) (A) (A) (A) (A)
                 (A) (A) (A) (A) (A) (A) (A) (A) (A) (A) (A) (A)
                 (A) (A) (A) (A) (A) (A) (A) (A) (A) (A) (A) (A)
                 (A) (A) (A) (A) (A) (A) (A) (A) (A) (A) (A) (A)
                 (A) (A) (A) (A) (A) (A) (A) (A) (A) (A) (A) (A)
                 (A) (A) (A) (A) (A) (A) (A) (A) (A) (A) (A) (A)
                 (A) (A) (A) (A) (A) (A) (A) (A) (A) (A) (A) (A)
                 (A) (A) (A) (A) (A) (A) (A) (A) (A) (A) (A) (A)
                 (A) (A) (A) (A) (A) (A) (A) (A) (A) (A) (A) (A)
                 (A) (A) (A) (A) (A) (A) (A) (A) (A) (A) (A) (A)
                 (A) (A) (A) (A) (A) (A) (A) (A) (A) (A) (A) (A)
                 (A) (A) (A) (A) (A) (A) (A) (A) (A) (A) (A) (A)
                 (A) (A) (A) (A) (A) (A) (A) (A) (A) (A) (A) (A)
                 (A) (A) (A) (A) (A) (A) (A) (A) (A) (A)
 The electronic state of the initial guess is 1-A.
 Requested convergence on RMS density matrix=1.00D-08 within 128 cycles.
 Requested convergence on MAX density matrix=1.00D-06.
 Requested convergence on             energy=1.00D-06.
 No special actions if energy rises.
 Integral accuracy reduced to 1.0D-05 until final iterations.
 EnCoef did     1 forward-backward iterations
 Initial convergence to 1.0D-05 achieved.  Increase integral accuracy.
 SCF Done:  E(RB3LYP) =  -1387.30399655     A.U. after   16 cycles
             Convg  =    0.5237D-08             -V/T =  2.0091

 **********************************************************************

            Population analysis using the SCF density.

 **********************************************************************

 Orbital symmetries:
       Occupied  (A) (A) (A) (A) (A) (A) (A) (A) (A) (A) (A) (A)
                 (A) (A) (A) (A) (A) (A) (A) (A) (A) (A) (A) (A)
                 (A) (A) (A) (A) (A) (A) (A) (A) (A) (A) (A) (A)
                 (A) (A) (A) (A) (A) (A) (A) (A) (A) (A) (A) (A)
                 (A) (A) (A) (A) (A) (A) (A) (A) (A) (A) (A) (A)
                 (A) (A) (A) (A) (A) (A) (A) (A) (A) (A) (A) (A)
                 (A) (A) (A) (A) (A) (A) (A) (A) (A) (A) (A) (A)
                 (A) (A) (A) (A) (A) (A) (A) (A) (A) (A) (A) (A)
                 (A) (A) (A) (A) (A) (A) (A) (A) (A) (A) (A) (A)
                 (A) (A) (A) (A) (A) (A) (A)
       Virtual   (A) (A) (A) (A) (A) (A) (A) (A) (A) (A) (A) (A)
                 (A) (A) (A) (A) (A) (A) (A) (A) (A) (A) (A) (A)
                 (A) (A) (A) (A) (A) (A) (A) (A) (A) (A) (A) (A)
                 (A) (A) (A) (A) (A) (A) (A) (A) (A) (A) (A) (A)
                 (A) (A) (A) (A) (A) (A) (A) (A) (A) (A) (A) (A)
                 (A) (A) (A) (A) (A) (A) (A) (A) (A) (A) (A) (A)
                 (A) (A) (A) (A) (A) (A) (A) (A) (A) (A) (A) (A)
                 (A) (A) (A) (A) (A) (A) (A) (A) (A) (A) (A) (A)
                 (A) (A) (A) (A) (A) (A) (A) (A) (A) (A) (A) (A)
                 (A) (A) (A) (A) (A) (A) (A) (A) (A) (A) (A) (A)
                 (A) (A) (A) (A) (A) (A) (A) (A) (A) (A) (A) (A)
                 (A) (A) (A) (A) (A) (A) (A) (A) (A) (A) (A) (A)
                 (A) (A) (A) (A) (A) (A) (A) (A) (A) (A) (A) (A)
                 (A) (A) (A) (A) (A) (A) (A) (A) (A) (A) (A) (A)
                 (A) (A) (A) (A) (A) (A) (A) (A) (A) (A) (A) (A)
                 (A) (A) (A) (A) (A) (A) (A) (A) (A) (A) (A) (A)
                 (A) (A) (A) (A) (A) (A) (A) (A) (A) (A) (A) (A)
                 (A) (A) (A) (A) (A) (A) (A) (A) (A) (A) (A) (A)
                 (A) (A) (A) (A) (A) (A) (A) (A) (A) (A) (A) (A)
                 (A) (A) (A) (A) (A) (A) (A) (A) (A) (A) (A) (A)
                 (A) (A) (A) (A) (A) (A) (A) (A) (A) (A) (A) (A)
                 (A) (A) (A) (A) (A) (A) (A) (A) (A) (A) (A) (A)
                 (A) (A) (A) (A) (A) (A) (A) (A) (A) (A) (A) (A)
                 (A) (A) (A) (A) (A) (A) (A) (A) (A) (A) (A) (A)
                 (A) (A) (A) (A) (A) (A) (A) (A) (A) (A) (A) (A)
                 (A) (A) (A) (A) (A) (A) (A) (A) (A) (A) (A) (A)
                 (A) (A) (A) (A) (A) (A) (A) (A) (A) (A) (A) (A)
                 (A) (A) (A) (A) (A) (A) (A) (A) (A) (A) (A) (A)
                 (A) (A) (A) (A) (A) (A) (A) (A) (A) (A) (A) (A)
                 (A) (A) (A) (A) (A) (A) (A) (A) (A) (A) (A) (A)
                 (A) (A) (A) (A) (A) (A) (A) (A) (A) (A) (A) (A)
                 (A) (A) (A) (A) (A) (A) (A) (A) (A) (A) (A) (A)
                 (A) (A) (A) (A) (A) (A) (A) (A) (A) (A) (A) (A)
                 (A) (A) (A) (A) (A) (A) (A) (A) (A) (A) (A) (A)
                 (A) (A) (A) (A) (A) (A) (A) (A) (A) (A)
 The electronic state is 1-A.
 Alpha  occ. eigenvalues --  -19.19702 -19.16782 -19.15379 -19.13402 -19.13141
 Alpha  occ. eigenvalues --  -10.27869 -10.26890 -10.26845 -10.26158 -10.25936
 Alpha  occ. eigenvalues --  -10.25542 -10.24997 -10.21565 -10.20649 -10.20213
 Alpha  occ. eigenvalues --  -10.20128 -10.19492 -10.19467 -10.19400 -10.19194
 Alpha  occ. eigenvalues --  -10.19101 -10.18760 -10.18684 -10.18663 -10.18398
 Alpha  occ. eigenvalues --  -10.18305 -10.17961 -10.17769 -10.16832 -10.16812
 Alpha  occ. eigenvalues --  -10.15794  -1.08563  -1.06033  -1.03244  -1.02337
 Alpha  occ. eigenvalues --   -1.02116  -0.87395  -0.84003  -0.82668  -0.81693
 Alpha  occ. eigenvalues --   -0.80431  -0.79756  -0.76976  -0.74393  -0.73670
 Alpha  occ. eigenvalues --   -0.72353  -0.71635  -0.69591  -0.69198  -0.67883
 Alpha  occ. eigenvalues --   -0.65013  -0.64491  -0.63102  -0.61897  -0.60860
 Alpha  occ. eigenvalues --   -0.59483  -0.59049  -0.57379  -0.55142  -0.53503
 Alpha  occ. eigenvalues --   -0.53188  -0.52202  -0.50833  -0.50483  -0.49196
 Alpha  occ. eigenvalues --   -0.48858  -0.47998  -0.46656  -0.46265  -0.45798
 Alpha  occ. eigenvalues --   -0.45079  -0.44508  -0.43761  -0.43441  -0.43294
 Alpha  occ. eigenvalues --   -0.43015  -0.42102  -0.42075  -0.41731  -0.41529
 Alpha  occ. eigenvalues --   -0.41058  -0.40746  -0.40369  -0.40285  -0.39856
 Alpha  occ. eigenvalues --   -0.39141  -0.38825  -0.38538  -0.38198  -0.38077
 Alpha  occ. eigenvalues --   -0.37562  -0.37201  -0.37099  -0.36789  -0.36648
 Alpha  occ. eigenvalues --   -0.36218  -0.35532  -0.34954  -0.34492  -0.34142
 Alpha  occ. eigenvalues --   -0.33755  -0.33260  -0.32845  -0.32453  -0.32327
 Alpha  occ. eigenvalues --   -0.31840  -0.31257  -0.30873  -0.27901  -0.26615
 Alpha  occ. eigenvalues --   -0.26087  -0.25127  -0.24529  -0.23439  -0.23277
 Alpha virt. eigenvalues --   -0.05234  -0.02037   0.00397   0.02341   0.04329
 Alpha virt. eigenvalues --    0.06954   0.08547   0.08736   0.09108   0.10331
 Alpha virt. eigenvalues --    0.10691   0.11139   0.11309   0.11914   0.12350
 Alpha virt. eigenvalues --    0.12970   0.13228   0.13473   0.13792   0.13992
 Alpha virt. eigenvalues --    0.14137   0.14542   0.14993   0.15060   0.15585
 Alpha virt. eigenvalues --    0.16281   0.16475   0.17028   0.17540   0.17893
 Alpha virt. eigenvalues --    0.17995   0.18399   0.18482   0.18843   0.19004
 Alpha virt. eigenvalues --    0.19510   0.19944   0.19973   0.20047   0.20140
 Alpha virt. eigenvalues --    0.20328   0.21022   0.21270   0.21578   0.21939
 Alpha virt. eigenvalues --    0.22888   0.23373   0.24037   0.24448   0.24665
 Alpha virt. eigenvalues --    0.25262   0.25505   0.25813   0.26396   0.26612
 Alpha virt. eigenvalues --    0.26983   0.27603   0.27792   0.28580   0.29681
 Alpha virt. eigenvalues --    0.30545   0.31651   0.32527   0.32998   0.34260
 Alpha virt. eigenvalues --    0.34887   0.36090   0.37859   0.39065   0.40691
 Alpha virt. eigenvalues --    0.42333   0.45447   0.46413   0.47837   0.48262
 Alpha virt. eigenvalues --    0.49908   0.50119   0.51059   0.51178   0.51875
 Alpha virt. eigenvalues --    0.52193   0.52561   0.53055   0.53300   0.53752
 Alpha virt. eigenvalues --    0.54270   0.54508   0.55032   0.55631   0.56719
 Alpha virt. eigenvalues --    0.57331   0.57640   0.57870   0.58767   0.59044
 Alpha virt. eigenvalues --    0.59244   0.60220   0.60488   0.61209   0.61931
 Alpha virt. eigenvalues --    0.62569   0.63174   0.63459   0.63929   0.64336
 Alpha virt. eigenvalues --    0.65602   0.65839   0.66500   0.66636   0.67143
 Alpha virt. eigenvalues --    0.67579   0.68530   0.68815   0.69451   0.69596
 Alpha virt. eigenvalues --    0.70522   0.70697   0.71759   0.72789   0.73475
 Alpha virt. eigenvalues --    0.74464   0.75185   0.75552   0.75895   0.76343
 Alpha virt. eigenvalues --    0.77152   0.78282   0.78734   0.79319   0.80195
 Alpha virt. eigenvalues --    0.80454   0.80935   0.81583   0.82208   0.82357
 Alpha virt. eigenvalues --    0.82844   0.83195   0.83643   0.84383   0.84792
 Alpha virt. eigenvalues --    0.85422   0.85785   0.86253   0.86657   0.87146
 Alpha virt. eigenvalues --    0.87555   0.88151   0.88547   0.88964   0.89397
 Alpha virt. eigenvalues --    0.89630   0.89894   0.90135   0.90451   0.90663
 Alpha virt. eigenvalues --    0.90845   0.91609   0.91723   0.91973   0.92366
 Alpha virt. eigenvalues --    0.92830   0.93205   0.93811   0.94265   0.94584
 Alpha virt. eigenvalues --    0.94826   0.95654   0.95692   0.96404   0.96681
 Alpha virt. eigenvalues --    0.97201   0.97613   0.98068   0.98874   0.99867
 Alpha virt. eigenvalues --    0.99928   1.00979   1.02066   1.03019   1.03771
 Alpha virt. eigenvalues --    1.04115   1.04845   1.05706   1.06458   1.07002
 Alpha virt. eigenvalues --    1.08353   1.10104   1.10647   1.11340   1.12005
 Alpha virt. eigenvalues --    1.12411   1.13729   1.14951   1.16300   1.16452
 Alpha virt. eigenvalues --    1.17739   1.18051   1.18826   1.19641   1.20255
 Alpha virt. eigenvalues --    1.21522   1.23202   1.24144   1.24849   1.25972
 Alpha virt. eigenvalues --    1.26710   1.28798   1.30640   1.31489   1.32214
 Alpha virt. eigenvalues --    1.35451   1.36220   1.37312   1.38907   1.39951
 Alpha virt. eigenvalues --    1.40879   1.42063   1.43532   1.43767   1.46244
 Alpha virt. eigenvalues --    1.47313   1.48309   1.50892   1.51972   1.52639
 Alpha virt. eigenvalues --    1.54130   1.55174   1.56257   1.56585   1.57538
 Alpha virt. eigenvalues --    1.60288   1.61963   1.62624   1.63402   1.64484
 Alpha virt. eigenvalues --    1.65615   1.66270   1.67177   1.68088   1.69605
 Alpha virt. eigenvalues --    1.69733   1.72305   1.73054   1.73502   1.73718
 Alpha virt. eigenvalues --    1.74686   1.76527   1.76952   1.78178   1.79156
 Alpha virt. eigenvalues --    1.79759   1.80077   1.80563   1.81811   1.82298
 Alpha virt. eigenvalues --    1.82949   1.83433   1.84409   1.84699   1.85884
 Alpha virt. eigenvalues --    1.86019   1.86959   1.87616   1.87866   1.88503
 Alpha virt. eigenvalues --    1.89825   1.89851   1.90483   1.90863   1.90919
 Alpha virt. eigenvalues --    1.91744   1.92526   1.92845   1.93593   1.94735
 Alpha virt. eigenvalues --    1.95557   1.95971   1.96691   1.97601   1.98061
 Alpha virt. eigenvalues --    1.98886   1.99600   2.00508   2.01287   2.02132
 Alpha virt. eigenvalues --    2.02998   2.03354   2.05106   2.05395   2.06413
 Alpha virt. eigenvalues --    2.07178   2.07462   2.07511   2.09097   2.09451
 Alpha virt. eigenvalues --    2.09479   2.10934   2.12171   2.13301   2.13847
 Alpha virt. eigenvalues --    2.14227   2.15641   2.16090   2.16805   2.18712
 Alpha virt. eigenvalues --    2.20207   2.20559   2.21241   2.22464   2.23400
 Alpha virt. eigenvalues --    2.23826   2.24362   2.25334   2.25902   2.27210
 Alpha virt. eigenvalues --    2.28601   2.28652   2.30670   2.31106   2.31851
 Alpha virt. eigenvalues --    2.32718   2.33590   2.34276   2.34699   2.35262
 Alpha virt. eigenvalues --    2.35525   2.36998   2.37441   2.38995   2.39347
 Alpha virt. eigenvalues --    2.39667   2.40730   2.42167   2.42786   2.43140
 Alpha virt. eigenvalues --    2.44598   2.45333   2.46397   2.47523   2.48546
 Alpha virt. eigenvalues --    2.49572   2.50350   2.50931   2.53164   2.55491
 Alpha virt. eigenvalues --    2.56436   2.57474   2.58253   2.59471   2.60706
 Alpha virt. eigenvalues --    2.61300   2.61883   2.64019   2.65299   2.66647
 Alpha virt. eigenvalues --    2.66995   2.67991   2.69201   2.71140   2.71277
 Alpha virt. eigenvalues --    2.72843   2.73467   2.76043   2.77186   2.79038
 Alpha virt. eigenvalues --    2.80710   2.81451   2.82358   2.83362   2.86049
 Alpha virt. eigenvalues --    2.87081   2.89536   2.92313   2.93915   2.95511
 Alpha virt. eigenvalues --    2.96233   2.99321   3.01448   3.02171   3.03238
 Alpha virt. eigenvalues --    3.05284   3.07290   3.13135   3.17930   3.21268
 Alpha virt. eigenvalues --    3.22846   3.28923   4.01092   4.08734   4.11688
 Alpha virt. eigenvalues --    4.14140   4.15325   4.15873   4.19614   4.21707
 Alpha virt. eigenvalues --    4.22835   4.23866   4.24588   4.27422   4.30262
 Alpha virt. eigenvalues --    4.32527   4.35171   4.38027   4.39847   4.43582
 Alpha virt. eigenvalues --    4.46305   4.47173   4.53824   4.54671   4.60775
 Alpha virt. eigenvalues --    4.63386   4.64104   4.68174   4.72290   4.81173
 Alpha virt. eigenvalues --    4.91173   4.99415   5.18906
          Condensed to atoms (all electrons):
 Mulliken atomic charges:
              1
     1  C   -0.189121
     2  C    0.190170
     3  C   -0.186324
     4  C    0.321295
     5  C   -0.045832
     6  C   -0.332612
     7  C    0.213638
     8  C    0.393525
     9  C   -0.081481
    10  C    0.426647
    11  C    0.423818
    12  O   -0.461635
    13  C   -0.151409
    14  C   -0.247070
    15  C   -0.453631
    16  O   -0.497810
    17  C   -0.161602
    18  C    0.312586
    19  O   -0.539473
    20  C   -0.319711
    21  O   -0.661614
    22  C   -0.324267
    23  C    0.103922
    24  O   -0.584344
    25  C    0.179115
    26  C   -0.504603
    27  C   -0.392692
    28  C   -0.462728
    29  C   -0.463930
    30  H    0.143291
    31  H    0.163146
    32  C   -0.517200
    33  H    0.124546
    34  H    0.151639
    35  H    0.181104
    36  H    0.140556
    37  H    0.153989
    38  H    0.124289
    39  H    0.145279
    40  H    0.162079
    41  H    0.163498
    42  H    0.169460
    43  H    0.147895
    44  H    0.411069
    45  H    0.170389
    46  H    0.168273
    47  H    0.136402
    48  H    0.165754
    49  H    0.153530
    50  H    0.154596
    51  H    0.142654
    52  H    0.149790
    53  H    0.148880
    54  H    0.139829
    55  H    0.184727
    56  H    0.160580
    57  H    0.159589
    58  H    0.149850
    59  H    0.158832
    60  H    0.160777
    61  H    0.147982
    62  C   -0.448057
    63  H    0.133456
    64  H    0.137408
    65  H    0.157294
 Sum of Mulliken atomic charges =   0.00000
 Mulliken charges with hydrogens summed into heavy atoms:
              1
     1  C   -0.064575
     2  C    0.190170
     3  C   -0.023178
     4  C    0.321295
     5  C   -0.045832
     6  C    0.000131
     7  C    0.213638
     8  C    0.393525
     9  C   -0.081481
    10  C    0.426647
    11  C    0.423818
    12  O   -0.461635
    13  C   -0.010852
    14  C    0.031208
    15  C    0.017225
    16  O   -0.497810
    17  C   -0.018311
    18  C    0.312586
    19  O   -0.539473
    20  C   -0.002356
    21  O   -0.250546
    22  C    0.014395
    23  C    0.240323
    24  O   -0.584344
    25  C    0.179115
    26  C   -0.030723
    27  C   -0.100248
    28  C    0.010707
    29  C    0.006089
    32  C   -0.049609
    62  C   -0.019898
 Sum of Mulliken charges with hydrogens summed into heavy atoms =   0.00000
 Electronic spatial extent (au):  <R**2>=          11257.3724
 Charge=              0.0000 electrons
 Dipole moment (field-independent basis, Debye):
    X=             -3.7475    Y=              3.7627    Z=             -1.8022  Tot=              5.6080
 Quadrupole moment (field-independent basis, Debye-Ang):
   XX=           -181.4009   YY=           -181.6732   ZZ=           -184.6783
   XY=              4.3707   XZ=             -6.6561   YZ=              4.3890
 Traceless Quadrupole moment (field-independent basis, Debye-Ang):
   XX=              1.1832   YY=              0.9110   ZZ=             -2.0942
   XY=              4.3707   XZ=             -6.6561   YZ=              4.3890
 Octapole moment (field-independent basis, Debye-Ang**2):
  XXX=            -34.1447  YYY=             46.5995  ZZZ=              2.3130  XYY=             -0.8743
  XXY=            -11.7973  XXZ=            -39.0288  XZZ=            -26.7489  YZZ=              6.1230
  YYZ=            -20.4213  XYZ=              9.7087
 Hexadecapole moment (field-independent basis, Debye-Ang**3):
 XXXX=          -8077.4153 YYYY=          -3755.1166 ZZZZ=          -3154.5312 XXXY=            -21.9705
 XXXZ=             31.7714 YYYX=             -8.4035 YYYZ=              0.3964 ZZZX=             14.5515
 ZZZY=            -14.2962 XXYY=          -1965.2519 XXZZ=          -1872.3933 YYZZ=          -1138.1435
 XXYZ=             22.5605 YYXZ=            -12.5519 ZZXY=             32.9444
 N-N= 3.533878368949D+03 E-N=-1.029412043978D+04  KE= 1.374790244445D+03
 Calling FoFJK, ICntrl=      2127 FMM=T ISym2X=0 I1Cent= 0 IOpClX= 0 NMat=1 NMatS=1 NMatT=0.
 ***** Axes restored to original set *****
 -------------------------------------------------------------------
 Center     Atomic                   Forces (Hartrees/Bohr)
 Number     Number              X              Y              Z
 -------------------------------------------------------------------
      1        6           0.009437616   -0.000513248    0.000251195
      2        6          -0.012727475   -0.005297141    0.001920008
      3        6          -0.000900806   -0.007998311   -0.000597859
      4        6           0.003287776   -0.004358239    0.010773596
      5        6          -0.011839739   -0.000779975    0.001127864
      6        6          -0.004274364   -0.011277393   -0.000933526
      7        6           0.012172374    0.018883087    0.008611957
      8        6           0.009902936   -0.011029756   -0.014371882
      9        6          -0.001331987    0.004749813    0.008020403
     10        6          -0.011218363    0.001608307   -0.019547008
     11        6          -0.011894153   -0.020759831   -0.011564313
     12        8           0.003182749    0.018828743   -0.000539621
     13        6           0.002810597   -0.006462742   -0.010657622
     14        6           0.003672602   -0.001677437   -0.001362526
     15        6          -0.009717855    0.004689141    0.005425784
     16        8           0.011374575   -0.004238533    0.010686864
     17        6           0.008127139   -0.011117998   -0.005495244
     18        6           0.032190067    0.007636671   -0.000307460
     19        8          -0.027283284    0.002851720    0.026249882
     20        6           0.011507753   -0.004721204   -0.000030244
     21        8          -0.006013106    0.006918171   -0.002359521
     22        6          -0.007176033    0.013477595    0.002156004
     23        6          -0.005461004    0.008316375    0.000610638
     24        8           0.001811441   -0.006054880   -0.009890335
     25        6          -0.003048483    0.014722531    0.001824729
     26        6           0.001370751    0.001753529    0.000318521
     27        6           0.001197364   -0.010216888   -0.001542379
     28        6          -0.002995802    0.007624100   -0.004796541
     29        6          -0.003563346   -0.006208665   -0.008979877
     30        1          -0.001730104    0.001086538   -0.001734292
     31        1          -0.003232620    0.006113864   -0.000080805
     32        6          -0.001108752    0.000916367   -0.000978854
     33        1           0.001465877   -0.000789982   -0.000060512
     34        1          -0.000627883    0.005591993    0.001879559
     35        1           0.000418935    0.007307730   -0.001162850
     36        1           0.000456459   -0.000628447    0.002358926
     37        1          -0.002328793    0.001420227    0.002643712
     38        1          -0.002754442    0.001772425    0.000733299
     39        1           0.001582606    0.000031121   -0.000667681
     40        1          -0.001872094   -0.000387957    0.000057597
     41        1           0.001076059   -0.000489980   -0.000062473
     42        1           0.000085991    0.002776399   -0.000148115
     43        1          -0.001272432   -0.001983355   -0.001485950
     44        1          -0.001886035   -0.003744460   -0.002462595
     45        1           0.001954564    0.000061713    0.003525990
     46        1           0.001504580   -0.002930196   -0.001502435
     47        1          -0.001850294   -0.001297894    0.003115049
     48        1           0.001062016   -0.003367528    0.002196598
     49        1          -0.001406374   -0.000115215   -0.001640145
     50        1           0.002574282   -0.002668908    0.001567042
     51        1          -0.000005575   -0.000617753    0.000991149
     52        1          -0.000323011   -0.000237290   -0.001439641
     53        1           0.002133103   -0.003873404    0.000380168
     54        1           0.000454211   -0.000778033    0.000150721
     55        1          -0.001266552   -0.002571856    0.005576951
     56        1          -0.000237563    0.000030335    0.003781003
     57        1           0.000639860    0.002781014    0.001485578
     58        1          -0.000798707    0.001209380    0.000639239
     59        1          -0.001099878    0.001839240   -0.000647376
     60        1           0.004264026   -0.001704621    0.000268603
     61        1           0.004104030   -0.001150572    0.000163231
     62        6           0.003616495   -0.002809971   -0.003036461
     63        1           0.001733057   -0.000668525   -0.000803307
     64        1           0.001547982   -0.000058278    0.000842654
     65        1           0.000527032    0.000588338    0.000554935
 -------------------------------------------------------------------
 Cartesian Forces:  Max     0.032190067 RMS     0.006630307

 GradGradGradGradGradGradGradGradGradGradGradGradGradGradGradGradGradGrad
 Berny optimization.
 Internal  Forces:  Max     0.019693873 RMS     0.003516058
 Search for a local minimum.
 Step number   1 out of a maximum of  390
 All quantities printed in internal units (Hartrees-Bohrs-Radians)
 Mixed Optimization -- RFO/linear search
 Second derivative matrix not updated -- first step.
 ITU=  0
     Eigenvalues ---    0.00276   0.00281   0.00335   0.00395   0.00409
     Eigenvalues ---    0.00433   0.00460   0.00556   0.00607   0.00611
     Eigenvalues ---    0.00644   0.00661   0.00686   0.00691   0.00742
     Eigenvalues ---    0.01018   0.01084   0.01245   0.01252   0.01421
     Eigenvalues ---    0.01462   0.01629   0.01715   0.01819   0.01928
     Eigenvalues ---    0.02505   0.02826   0.02826   0.03030   0.03116
     Eigenvalues ---    0.03527   0.03594   0.03754   0.04032   0.04102
     Eigenvalues ---    0.04132   0.04311   0.04381   0.04585   0.04636
     Eigenvalues ---    0.04727   0.04835   0.04922   0.05092   0.05245
     Eigenvalues ---    0.05305   0.05381   0.05422   0.05493   0.05502
     Eigenvalues ---    0.05505   0.05523   0.05550   0.05555   0.05627
     Eigenvalues ---    0.05631   0.05696   0.05928   0.06276   0.06636
     Eigenvalues ---    0.06688   0.06863   0.07091   0.07110   0.07173
     Eigenvalues ---    0.07248   0.07248   0.07366   0.07693   0.08358
     Eigenvalues ---    0.08385   0.08829   0.09023   0.09186   0.09829
     Eigenvalues ---    0.10083   0.10640   0.10924   0.11639   0.12217
     Eigenvalues ---    0.13168   0.14709   0.15203   0.15972   0.16000
     Eigenvalues ---    0.16000   0.16000   0.16000   0.16000   0.16000
     Eigenvalues ---    0.16000   0.16000   0.16000   0.16000   0.16000
     Eigenvalues ---    0.16000   0.16000   0.16000   0.16000   0.16000
     Eigenvalues ---    0.16000   0.16000   0.16000   0.16000   0.16000
     Eigenvalues ---    0.16372   0.16406   0.17245   0.17741   0.18327
     Eigenvalues ---    0.19738   0.21568   0.21918   0.22711   0.23512
     Eigenvalues ---    0.24462   0.24932   0.24964   0.24984   0.24986
     Eigenvalues ---    0.24986   0.24993   0.25000   0.25920   0.27298
     Eigenvalues ---    0.27369   0.27740   0.27824   0.28037   0.28297
     Eigenvalues ---    0.28690   0.28783   0.28815   0.29187   0.29602
     Eigenvalues ---    0.29706   0.30065   0.30486   0.30524   0.31176
     Eigenvalues ---    0.31561   0.31750   0.31829   0.33316   0.33666
     Eigenvalues ---    0.33968   0.33976   0.34005   0.34017   0.34032
     Eigenvalues ---    0.34033   0.34045   0.34061   0.34070   0.34073
     Eigenvalues ---    0.34121   0.34129   0.34138   0.34165   0.34198
     Eigenvalues ---    0.34200   0.34220   0.34240   0.34245   0.34246
     Eigenvalues ---    0.34262   0.34273   0.34278   0.34279   0.34286
     Eigenvalues ---    0.34310   0.34344   0.34344   0.34462   0.34470
     Eigenvalues ---    0.34952   0.35214   0.35256   0.35451   0.36390
     Eigenvalues ---    0.37348   0.42856   0.43571   0.51579   0.53367
     Eigenvalues ---    0.54550   0.56257   0.89741   0.90703
 RFO step:  Lambda=-2.23633729D-02 EMin= 2.75943538D-03
 Linear search not attempted -- first point.
 Iteration  1 RMS(Cart)=  0.08403468 RMS(Int)=  0.00172907
 Iteration  2 RMS(Cart)=  0.00332692 RMS(Int)=  0.00024944
 Iteration  3 RMS(Cart)=  0.00000597 RMS(Int)=  0.00024942
 Iteration  4 RMS(Cart)=  0.00000000 RMS(Int)=  0.00024942
 Variable       Old X    -DE/DX   Delta X   Delta X   Delta X     New X
                                 (Linear)    (Quad)   (Total)
    R1        2.53469  -0.00253   0.00000  -0.00544  -0.00548   2.52921
    R2        2.82327   0.00854   0.00000   0.02499   0.02492   2.84819
    R3        2.05754  -0.00005   0.00000  -0.00013  -0.00013   2.05740
    R4        2.85380   0.00385   0.00000   0.00841   0.00845   2.86225
    R5        2.84604   0.00316   0.00000   0.00931   0.00931   2.85535
    R6        2.93988   0.00505   0.00000   0.01257   0.01250   2.95238
    R7        2.90864   0.01123   0.00000   0.03833   0.03832   2.94696
    R8        2.07897  -0.00084   0.00000  -0.00233  -0.00233   2.07664
    R9        2.90591   0.00908   0.00000   0.02931   0.02915   2.93506
   R10        2.91431   0.00724   0.00000   0.02399   0.02410   2.93841
   R11        2.76322  -0.00449   0.00000  -0.01049  -0.01050   2.75272
   R12        2.91319   0.00046   0.00000   0.00461   0.00454   2.91772
   R13        2.90386   0.00621   0.00000   0.01412   0.01407   2.91794
   R14        2.89511   0.01232   0.00000   0.03988   0.03988   2.93499
   R15        2.07254   0.00294   0.00000   0.00811   0.00811   2.08065
   R16        2.07384  -0.00134   0.00000  -0.00371  -0.00371   2.07013
   R17        2.81608   0.00960   0.00000   0.02074   0.02035   2.83643
   R18        2.86051   0.01572   0.00000   0.05529   0.05477   2.91528
   R19        2.67848   0.00302   0.00000   0.00669   0.00669   2.68517
   R20        2.52551   0.01347   0.00000   0.02343   0.02345   2.54896
   R21        2.63082  -0.01969   0.00000  -0.04640  -0.04617   2.58465
   R22        2.79439  -0.00011   0.00000  -0.00386  -0.00369   2.79070
   R23        2.79857   0.01854   0.00000   0.05052   0.05052   2.84908
   R24        2.33053  -0.01410   0.00000  -0.01533  -0.01533   2.31519
   R25        2.32611  -0.01881   0.00000  -0.02024  -0.02024   2.30587
   R26        2.88554  -0.00018   0.00000  -0.00055  -0.00055   2.88499
   R27        2.90391   0.00303   0.00000   0.00975   0.00975   2.91366
   R28        2.88764   0.00900   0.00000   0.02826   0.02826   2.91590
   R29        2.07206   0.00039   0.00000   0.00106   0.00106   2.07313
   R30        2.07276  -0.00059   0.00000  -0.00162  -0.00162   2.07114
   R31        2.07302   0.00094   0.00000   0.00258   0.00258   2.07560
   R32        2.87833   0.00778   0.00000   0.02409   0.02409   2.90242
   R33        2.06927   0.00046   0.00000   0.00127   0.00127   2.07054
   R34        2.06960   0.00052   0.00000   0.00143   0.00143   2.07103
   R35        2.07053  -0.00030   0.00000  -0.00082  -0.00082   2.06970
   R36        2.91603  -0.00098   0.00000   0.00869   0.00893   2.92497
   R37        2.90531   0.00422   0.00000   0.01432   0.01438   2.91969
[...]
     54          1           0        0.680161    3.097919   -3.530991
     55          1           0        0.526900    1.329878   -3.420922
     56          1           0        2.107207    3.523834   -0.042130
     57          1           0        2.982510    3.432513   -1.578133
     58          1           0        1.516050    4.421691   -1.456308
     59          1           0       -1.047207    2.474718    4.558620
     60          1           0       -0.118691    3.203650    3.239765
     61          1           0       -1.858494    3.464295    3.330103
     62          6           0        5.496229    0.082390   -0.116816
     63          1           0        6.573371    0.172394    0.065040
     64          1           0        5.265104    0.634568   -1.036380
     65          1           0        4.976053    0.573971    0.711444
 ---------------------------------------------------------------------
 Rotational constants (GHZ):      0.2068257      0.1229088      0.1178884

 **********************************************************************

            Population analysis using the SCF density.

 **********************************************************************

 Orbital symmetries:
       Occupied  (A) (A) (A) (A) (A) (A) (A) (A) (A) (A) (A) (A)
                 (A) (A) (A) (A) (A) (A) (A) (A) (A) (A) (A) (A)
                 (A) (A) (A) (A) (A) (A) (A) (A) (A) (A) (A) (A)
                 (A) (A) (A) (A) (A) (A) (A) (A) (A) (A) (A) (A)
                 (A) (A) (A) (A) (A) (A) (A) (A) (A) (A) (A) (A)
                 (A) (A) (A) (A) (A) (A) (A) (A) (A) (A) (A) (A)
                 (A) (A) (A) (A) (A) (A) (A) (A) (A) (A) (A) (A)
                 (A) (A) (A) (A) (A) (A) (A) (A) (A) (A) (A) (A)
                 (A) (A) (A) (A) (A) (A) (A) (A) (A) (A) (A) (A)
                 (A) (A) (A) (A) (A) (A) (A)
       Virtual   (A) (A) (A) (A) (A) (A) (A) (A) (A) (A) (A) (A)
                 (A) (A) (A) (A) (A) (A) (A) (A) (A) (A) (A) (A)
                 (A) (A) (A) (A) (A) (A) (A) (A) (A) (A) (A) (A)
                 (A) (A) (A) (A) (A) (A) (A) (A) (A) (A) (A) (A)
                 (A) (A) (A) (A) (A) (A) (A) (A) (A) (A) (A) (A)
                 (A) (A) (A) (A) (A) (A) (A) (A) (A) (A) (A) (A)
                 (A) (A) (A) (A) (A) (A) (A) (A) (A) (A) (A) (A)
                 (A) (A) (A) (A) (A) (A) (A) (A) (A) (A) (A) (A)
                 (A) (A) (A) (A) (A) (A) (A) (A) (A) (A) (A) (A)
                 (A) (A) (A) (A) (A) (A) (A) (A) (A) (A) (A) (A)
                 (A) (A) (A) (A) (A) (A) (A) (A) (A) (A) (A) (A)
                 (A) (A) (A) (A) (A) (A) (A) (A) (A) (A) (A) (A)
                 (A) (A) (A) (A) (A) (A) (A) (A) (A) (A) (A) (A)
                 (A) (A) (A) (A) (A) (A) (A) (A) (A) (A) (A) (A)
                 (A) (A) (A) (A) (A) (A) (A) (A) (A) (A) (A) (A)
                 (A) (A) (A) (A) (A) (A) (A) (A) (A) (A) (A) (A)
                 (A) (A) (A) (A) (A) (A) (A) (A) (A) (A) (A) (A)
                 (A) (A) (A) (A) (A) (A) (A) (A) (A) (A) (A) (A)
                 (A) (A) (A) (A) (A) (A) (A) (A) (A) (A) (A) (A)
                 (A) (A) (A) (A) (A) (A) (A) (A) (A) (A) (A) (A)
                 (A) (A) (A) (A) (A) (A) (A) (A) (A) (A) (A) (A)
                 (A) (A) (A) (A) (A) (A) (A) (A) (A) (A) (A) (A)
                 (A) (A) (A) (A) (A) (A) (A) (A) (A) (A) (A) (A)
                 (A) (A) (A) (A) (A) (A) (A) (A) (A) (A) (A) (A)
                 (A) (A) (A) (A) (A) (A) (A) (A) (A) (A) (A) (A)
                 (A) (A) (A) (A) (A) (A) (A) (A) (A) (A) (A) (A)
                 (A) (A) (A) (A) (A) (A) (A) (A) (A) (A) (A) (A)
                 (A) (A) (A) (A) (A) (A) (A) (A) (A) (A) (A) (A)
                 (A) (A) (A) (A) (A) (A) (A) (A) (A) (A) (A) (A)
                 (A) (A) (A) (A) (A) (A) (A) (A) (A) (A) (A) (A)
                 (A) (A) (A) (A) (A) (A) (A) (A) (A) (A) (A) (A)
                 (A) (A) (A) (A) (A) (A) (A) (A) (A) (A) (A) (A)
                 (A) (A) (A) (A) (A) (A) (A) (A) (A) (A) (A) (A)
                 (A) (A) (A) (A) (A) (A) (A) (A) (A) (A) (A) (A)
                 (A) (A) (A) (A) (A) (A) (A) (A) (A) (A)
 The electronic state is 1-A.
 Alpha  occ. eigenvalues --  -19.19668 -19.16656 -19.15780 -19.12651 -19.12413
 Alpha  occ. eigenvalues --  -10.27037 -10.26906 -10.26813 -10.26399 -10.25771
 Alpha  occ. eigenvalues --  -10.25723 -10.25114 -10.21201 -10.20783 -10.20637
 Alpha  occ. eigenvalues --  -10.20298 -10.19879 -10.19428 -10.19240 -10.19164
 Alpha  occ. eigenvalues --  -10.19084 -10.18891 -10.18877 -10.18706 -10.18399
 Alpha  occ. eigenvalues --  -10.18319 -10.18231 -10.17996 -10.17084 -10.16826
 Alpha  occ. eigenvalues --  -10.16045  -1.09054  -1.05844  -1.03118  -1.02416
 Alpha  occ. eigenvalues --   -1.02063  -0.86613  -0.83670  -0.82382  -0.81342
 Alpha  occ. eigenvalues --   -0.80167  -0.79430  -0.76685  -0.74219  -0.73118
 Alpha  occ. eigenvalues --   -0.72065  -0.71337  -0.70059  -0.69472  -0.67784
 Alpha  occ. eigenvalues --   -0.64846  -0.64147  -0.63075  -0.61787  -0.60523
 Alpha  occ. eigenvalues --   -0.59309  -0.58951  -0.56831  -0.54983  -0.53318
 Alpha  occ. eigenvalues --   -0.52804  -0.52060  -0.50448  -0.50297  -0.49198
 Alpha  occ. eigenvalues --   -0.48410  -0.47899  -0.46603  -0.46303  -0.45703
 Alpha  occ. eigenvalues --   -0.45210  -0.44410  -0.43541  -0.43331  -0.43126
 Alpha  occ. eigenvalues --   -0.42839  -0.42054  -0.41837  -0.41613  -0.41302
 Alpha  occ. eigenvalues --   -0.40870  -0.40548  -0.40465  -0.40249  -0.39965
 Alpha  occ. eigenvalues --   -0.39168  -0.38996  -0.38347  -0.38185  -0.37702
 Alpha  occ. eigenvalues --   -0.37527  -0.37432  -0.37351  -0.36912  -0.36808
 Alpha  occ. eigenvalues --   -0.36233  -0.35662  -0.35097  -0.34571  -0.34324
 Alpha  occ. eigenvalues --   -0.33732  -0.33489  -0.32784  -0.32700  -0.31891
 Alpha  occ. eigenvalues --   -0.31730  -0.31174  -0.30988  -0.28081  -0.26653
 Alpha  occ. eigenvalues --   -0.26317  -0.24581  -0.24059  -0.23269  -0.22666
 Alpha virt. eigenvalues --   -0.04487  -0.01238   0.00349   0.02346   0.05591
 Alpha virt. eigenvalues --    0.07254   0.08534   0.08944   0.09225   0.10383
 Alpha virt. eigenvalues --    0.10758   0.10981   0.11163   0.11790   0.12495
 Alpha virt. eigenvalues --    0.13003   0.13268   0.13573   0.13690   0.14115
 Alpha virt. eigenvalues --    0.14272   0.14363   0.14804   0.15526   0.15717
 Alpha virt. eigenvalues --    0.16252   0.16754   0.17040   0.17225   0.17371
 Alpha virt. eigenvalues --    0.17884   0.18009   0.18465   0.18560   0.18762
 Alpha virt. eigenvalues --    0.18881   0.19427   0.19667   0.19736   0.20163
 Alpha virt. eigenvalues --    0.20563   0.20725   0.21174   0.21432   0.21932
 Alpha virt. eigenvalues --    0.22598   0.23078   0.23744   0.23902   0.24593
 Alpha virt. eigenvalues --    0.24790   0.25444   0.25836   0.26324   0.26760
 Alpha virt. eigenvalues --    0.27115   0.27581   0.27973   0.28119   0.29749
 Alpha virt. eigenvalues --    0.29885   0.31732   0.32334   0.32421   0.33839
 Alpha virt. eigenvalues --    0.34578   0.36030   0.37728   0.38831   0.40207
 Alpha virt. eigenvalues --    0.41910   0.45593   0.46624   0.48278   0.48495
 Alpha virt. eigenvalues --    0.49227   0.49937   0.50546   0.50887   0.51505
 Alpha virt. eigenvalues --    0.51946   0.52039   0.52785   0.53292   0.53497
 Alpha virt. eigenvalues --    0.53683   0.54097   0.54566   0.55569   0.56486
 Alpha virt. eigenvalues --    0.57109   0.57446   0.57953   0.58479   0.58678
 Alpha virt. eigenvalues --    0.58894   0.60407   0.60656   0.61118   0.61761
 Alpha virt. eigenvalues --    0.62405   0.62850   0.63201   0.63955   0.64603
 Alpha virt. eigenvalues --    0.65258   0.65650   0.66329   0.66914   0.67533
 Alpha virt. eigenvalues --    0.67692   0.68065   0.68825   0.69526   0.69723
 Alpha virt. eigenvalues --    0.70225   0.70906   0.72038   0.72337   0.73515
 Alpha virt. eigenvalues --    0.74586   0.75041   0.75169   0.76068   0.76385
 Alpha virt. eigenvalues --    0.77070   0.77372   0.77961   0.79412   0.79780
 Alpha virt. eigenvalues --    0.80098   0.80630   0.81088   0.82295   0.82690
 Alpha virt. eigenvalues --    0.82962   0.83800   0.84052   0.84601   0.85159
 Alpha virt. eigenvalues --    0.85486   0.86207   0.86507   0.86704   0.87334
 Alpha virt. eigenvalues --    0.87637   0.87788   0.88414   0.88571   0.88881
 Alpha virt. eigenvalues --    0.89037   0.89771   0.90330   0.90580   0.90702
 Alpha virt. eigenvalues --    0.90991   0.91401   0.91518   0.91897   0.92243
 Alpha virt. eigenvalues --    0.93047   0.93391   0.93652   0.94107   0.94288
 Alpha virt. eigenvalues --    0.95177   0.95394   0.95912   0.96526   0.96629
 Alpha virt. eigenvalues --    0.96827   0.97776   0.97806   0.98389   0.99704
 Alpha virt. eigenvalues --    1.00060   1.00983   1.01532   1.02128   1.02897
 Alpha virt. eigenvalues --    1.03587   1.05146   1.05777   1.07129   1.08500
 Alpha virt. eigenvalues --    1.08686   1.10292   1.11235   1.11618   1.12214
 Alpha virt. eigenvalues --    1.13366   1.13984   1.14706   1.15832   1.15992
 Alpha virt. eigenvalues --    1.16510   1.17794   1.18751   1.19182   1.20521
 Alpha virt. eigenvalues --    1.21635   1.22490   1.24393   1.25652   1.26854
 Alpha virt. eigenvalues --    1.27272   1.29056   1.29547   1.31014   1.32311
 Alpha virt. eigenvalues --    1.35035   1.36981   1.37541   1.37886   1.40110
 Alpha virt. eigenvalues --    1.41291   1.41918   1.43124   1.43963   1.45944
 Alpha virt. eigenvalues --    1.46639   1.47932   1.49943   1.50453   1.52936
 Alpha virt. eigenvalues --    1.53174   1.54840   1.55575   1.56922   1.57771
 Alpha virt. eigenvalues --    1.59197   1.62121   1.62323   1.62784   1.63842
 Alpha virt. eigenvalues --    1.64401   1.65521   1.67156   1.67573   1.68397
 Alpha virt. eigenvalues --    1.70152   1.71795   1.72589   1.73401   1.73534
 Alpha virt. eigenvalues --    1.74231   1.75535   1.76539   1.77507   1.78070
 Alpha virt. eigenvalues --    1.78862   1.79378   1.80452   1.81014   1.81583
 Alpha virt. eigenvalues --    1.81943   1.83509   1.84132   1.85195   1.85655
 Alpha virt. eigenvalues --    1.85768   1.86600   1.86803   1.87466   1.88723
 Alpha virt. eigenvalues --    1.88917   1.89852   1.90103   1.90233   1.91004
 Alpha virt. eigenvalues --    1.91433   1.92082   1.93154   1.93353   1.94627
 Alpha virt. eigenvalues --    1.95086   1.95669   1.96021   1.97289   1.97821
 Alpha virt. eigenvalues --    1.98429   1.99417   1.99483   1.99905   2.01629
 Alpha virt. eigenvalues --    2.02253   2.02402   2.03768   2.04566   2.05706
 Alpha virt. eigenvalues --    2.06503   2.06753   2.08063   2.08839   2.09287
 Alpha virt. eigenvalues --    2.09874   2.11010   2.11229   2.12231   2.12488
 Alpha virt. eigenvalues --    2.14254   2.14834   2.15619   2.16740   2.17751
 Alpha virt. eigenvalues --    2.18184   2.19258   2.19653   2.21335   2.22496
 Alpha virt. eigenvalues --    2.23938   2.24164   2.24440   2.26323   2.26896
 Alpha virt. eigenvalues --    2.28140   2.28734   2.30128   2.30356   2.31354
 Alpha virt. eigenvalues --    2.33113   2.33163   2.34161   2.34503   2.34915
 Alpha virt. eigenvalues --    2.35279   2.36736   2.37029   2.38638   2.39437
 Alpha virt. eigenvalues --    2.39887   2.40271   2.41010   2.41751   2.42539
 Alpha virt. eigenvalues --    2.43442   2.44512   2.46397   2.46807   2.48113
 Alpha virt. eigenvalues --    2.48647   2.50193   2.51106   2.52794   2.54680
 Alpha virt. eigenvalues --    2.54996   2.56808   2.58319   2.58872   2.59100
 Alpha virt. eigenvalues --    2.61229   2.62150   2.63558   2.64921   2.65721
 Alpha virt. eigenvalues --    2.67004   2.67501   2.67893   2.69715   2.70527
 Alpha virt. eigenvalues --    2.72003   2.72431   2.73929   2.76426   2.77318
 Alpha virt. eigenvalues --    2.79489   2.79849   2.81856   2.82914   2.85295
 Alpha virt. eigenvalues --    2.86522   2.88936   2.91432   2.93931   2.95992
 Alpha virt. eigenvalues --    2.97839   3.00538   3.00947   3.01852   3.02849
 Alpha virt. eigenvalues --    3.05124   3.06361   3.12235   3.18180   3.21817
 Alpha virt. eigenvalues --    3.24418   3.28129   4.03190   4.07573   4.11950
 Alpha virt. eigenvalues --    4.12233   4.13288   4.13894   4.19167   4.19916
 Alpha virt. eigenvalues --    4.22329   4.23372   4.25500   4.27278   4.30554
 Alpha virt. eigenvalues --    4.31646   4.34113   4.37598   4.38910   4.43811
 Alpha virt. eigenvalues --    4.46531   4.48251   4.53749   4.55361   4.60566
 Alpha virt. eigenvalues --    4.62646   4.65289   4.67135   4.73230   4.80805
 Alpha virt. eigenvalues --    4.89224   5.02052   5.17633
          Condensed to atoms (all electrons):
 Mulliken atomic charges:
              1
     1  C   -0.184273
     2  C    0.193608
     3  C   -0.188721
     4  C    0.324091
     5  C   -0.055707
     6  C   -0.335290
     7  C    0.203778
     8  C    0.395426
     9  C   -0.097401
    10  C    0.434350
    11  C    0.425780
    12  O   -0.447264
    13  C   -0.161225
    14  C   -0.243738
    15  C   -0.454257
    16  O   -0.498016
    17  C   -0.163905
    18  C    0.305169
    19  O   -0.538220
    20  C   -0.322389
    21  O   -0.658929
    22  C   -0.324135
    23  C    0.096026
    24  O   -0.591710
    25  C    0.183263
    26  C   -0.508176
    27  C   -0.393752
    28  C   -0.468351
    29  C   -0.459705
    30  H    0.143593
    31  H    0.163332
    32  C   -0.519406
    33  H    0.124241
    34  H    0.145451
    35  H    0.186754
    36  H    0.144023
    37  H    0.154184
    38  H    0.122812
    39  H    0.146700
    40  H    0.156305
    41  H    0.164427
    42  H    0.168183
    43  H    0.150937
    44  H    0.413803
    45  H    0.167680
    46  H    0.168966
    47  H    0.138524
    48  H    0.170649
    49  H    0.154281
    50  H    0.156597
    51  H    0.142051
    52  H    0.152979
    53  H    0.155316
    54  H    0.143608
    55  H    0.193321
    56  H    0.163580
    57  H    0.163691
    58  H    0.150942
    59  H    0.158954
    60  H    0.157653
    61  H    0.149043
    62  C   -0.451603
    63  H    0.137950
    64  H    0.134092
    65  H    0.160060
 Sum of Mulliken atomic charges =   0.00000
 Mulliken charges with hydrogens summed into heavy atoms:
              1
     1  C   -0.060032
     2  C    0.193608
     3  C   -0.025389
     4  C    0.324091
     5  C   -0.055707
     6  C   -0.003085
     7  C    0.203778
     8  C    0.395426
     9  C   -0.097401
    10  C    0.434350
    11  C    0.425780
    12  O   -0.447264
    13  C   -0.017202
    14  C    0.033258
    15  C    0.013176
    16  O   -0.498016
    17  C   -0.020312
    18  C    0.305169
    19  O   -0.538220
    20  C   -0.003269
    21  O   -0.245126
    22  C    0.012511
    23  C    0.234550
    24  O   -0.591710
    25  C    0.183263
    26  C   -0.026650
    27  C   -0.098722
    28  C    0.023894
    29  C    0.018508
    32  C   -0.053756
    62  C   -0.019501
 Sum of Mulliken charges with hydrogens summed into heavy atoms =   0.00000
 Electronic spatial extent (au):  <R**2>=          11428.5985
 Charge=              0.0000 electrons
 Dipole moment (field-independent basis, Debye):
    X=             -3.7948    Y=              4.0313    Z=             -2.9555  Tot=              6.2759
 Quadrupole moment (field-independent basis, Debye-Ang):
   XX=           -181.2642   YY=           -178.8497   ZZ=           -186.6722
   XY=              6.0807   XZ=             -7.7912   YZ=              5.0923
 Traceless Quadrupole moment (field-independent basis, Debye-Ang):
   XX=              0.9978   YY=              3.4123   ZZ=             -4.4101
   XY=              6.0807   XZ=             -7.7912   YZ=              5.0923
 Octapole moment (field-independent basis, Debye-Ang**2):
  XXX=            -38.2690  YYY=             39.2075  ZZZ=             -5.4918  XYY=             -0.8608
  XXY=            -12.5894  XXZ=            -40.1378  XZZ=            -26.5106  YZZ=             17.4526
  YYZ=            -28.0210  XYZ=              6.6764
 Hexadecapole moment (field-independent basis, Debye-Ang**3):
 XXXX=          -8202.2209 YYYY=          -3763.0875 ZZZZ=          -3208.9577 XXXY=              3.4536
 XXXZ=             30.6800 YYYX=             -3.6810 YYYZ=             -1.2093 ZZZX=             -0.5970
 ZZZY=             -7.1622 XXYY=          -1996.8143 XXZZ=          -1913.1615 YYZZ=          -1160.4505
 XXYZ=             25.7885 YYXZ=            -12.8491 ZZXY=             49.3113
 N-N= 3.513307169910D+03 E-N=-1.025289781038D+04  KE= 1.374461155530D+03
 1\1\GINC-B0603\FOpt\RB3LYP\6-31G(d)\C26H34O5\CAOFEI\24-Mar-2021\0\\# o
 pt rb3lyp/6-31g(d) geom=connectivity\\Title Card Required\\0,1\C,0.077
 9329087,-0.0400011476,0.0658912676\C,1.415446114,-0.0193446989,0.07320
 1895\C,2.1851243128,1.2845203048,0.0482174025\C,1.3527197261,2.5640916
 812,-0.2790488451\C,-0.1474272914,2.4081210671,-0.6503697436\C,-0.7916
 738428,1.1856890527,0.0513760708\C,2.1771274256,3.2919749025,-1.378332
 1211\C,1.8118430558,2.8543891264,-2.7790456935\C,0.5823657739,2.455619
 6902,-3.1742227078\C,-0.4806601383,2.3182814952,-2.1652227201\C,0.2870
 435408,2.0132960394,-4.5903404879\O,-0.1219694631,0.8876751242,-4.8044
 825696\C,0.4557804451,3.0506481923,-5.7007508058\C,0.6820561991,2.4007
 934246,-7.0738385214\C,-0.806223964,3.9438715684,-5.6912945808\O,-1.64
 73862244,2.1411302184,-2.4893607326\C,3.6246031509,2.756642152,-1.3250
 767771\C,4.1386897607,3.0079413392,-2.7633265258\O,2.8981081063,2.8499
 470236,-3.5726221587\C,3.3950216343,1.2833633473,-0.9322770163\O,2.036
 2782116,4.6983910958,-1.305715428\C,-0.7515753424,3.7244717752,-0.0926
 070264\C,0.0452535579,3.9434582426,1.1887949022\O,1.3759234953,3.43337
 82304,0.8826544517\C,0.1881385611,5.3479514728,1.7378506096\C,1.067588
 689,5.4627992556,2.9599258637\C,-0.4454070341,6.4006868466,1.211407069
 3\C,4.6552326964,4.4335198109,-2.971276799\C,5.1329440111,1.9858416937
 ,-3.3077208075\H,4.2268488043,3.287716244,-0.5814002746\H,2.5814329736
 ,1.4643833955,1.0579661129\C,2.2290128315,-1.286178825,0.1749998815\H,
 -0.43473878,-0.9996168369,0.1164122278\H,-1.0504998778,1.4499686261,1.
 0880034209\H,-1.7416661902,0.9839957047,-0.4526013321\H,1.3181155441,3
 .680492724,-5.4455358832\H,-0.1433366515,1.7071324449,-7.2717485089\H,
 0.6276980964,3.1874034115,-7.8385952585\H,-0.7005353616,4.7513983288,-
 6.4242873378\H,-0.9767189797,4.3955652137,-4.7084292001\H,-1.694585330
 5,3.3569328444,-5.9487663002\H,3.1364149113,0.6957953068,-1.8200639068
 \H,4.2823873068,0.8217768114,-0.4897437475\H,1.9673114099,4.8810935271
 ,-0.3471240338\H,-0.576630457,4.5438871715,-0.7953314576\H,-1.82743096
 84,3.6350881276,0.0783736537\H,-0.3609673682,3.3116786714,1.9945035379
 \H,2.0778298606,5.0915945828,2.7530998974\H,1.1387753385,6.4978205895,
 3.3068553964\H,0.6724383652,4.8522120089,3.7835387072\H,-0.3432839204,
 7.3911040696,1.6479865088\H,-1.0930665503,6.3233786189,0.3441366874\H,
 4.8294596238,4.6138556544,-4.0371634683\H,5.606034624,4.5675241259,-2.
 4425619998\H,3.9391779209,5.1671063996,-2.5963954704\H,4.7397469657,0.
 9675054681,-3.2668351743\H,5.3737168431,2.2154894198,-4.3505402417\H,6
 .0615961658,2.0245623094,-2.7275219233\H,1.5812245298,-2.1640169816,0.
 2595198621\H,2.8781510707,-1.4330690774,-0.697850258\H,2.8871464436,-1
 .2654533687,1.0556701034\C,2.0172180116,1.6585892878,-7.1968251464\H,2
 .1438276205,1.2448367861,-8.2038936644\H,2.8648481928,2.327260674,-7.0
 010708231\H,2.0717489051,0.8280382146,-6.4858680508\\Version=EM64L-G09
 RevB.01\State=1-A\HF=-1387.3192512\RMSD=7.401e-09\RMSF=1.988e-06\Dipol
 e=1.7460875,0.7499173,1.5765343\Quadrupole=0.2036412,-1.1093059,0.9056
 647,-5.515463,-5.5489967,-3.8648296\PG=C01 [X(C26H34O5)]\\@


 A warm smile is the universal language of kindness.
                             -- William Arthur Ward
 Job cpu time:  0 days  5 hours 28 minutes 15.4 seconds.
 File lengths (MBytes):  RWF=    186 Int=      0 D2E=      0 Chk=     20 Scr=      1
 Normal termination of Gaussian 09 at Wed Mar 24 14:19:20 2021.
