 Entering Gaussian System, Link 0=g09
 Initial command:
 /public/software/g09/g09/l1.exe /tmp/Gau-26733.inp -scrdir=/tmp/
 Entering Link 1 = /public/software/g09/g09/l1.exe PID=     26734.
  
 Copyright (c) 1988,1990,1992,1993,1995,1998,2003,2009,2010,
            Gaussian, Inc.  All Rights Reserved.
  
 This is part of the Gaussian(R) 09 program.  It is based on
 the Gaussian(R) 03 system (copyright 2003, Gaussian, Inc.),
 the Gaussian(R) 98 system (copyright 1998, Gaussian, Inc.),
 the Gaussian(R) 94 system (copyright 1995, Gaussian, Inc.),
 the Gaussian 92(TM) system (copyright 1992, Gaussian, Inc.),
 the Gaussian 90(TM) system (copyright 1990, Gaussian, Inc.),
 the Gaussian 88(TM) system (copyright 1988, Gaussian, Inc.),
 the Gaussian 86(TM) system (copyright 1986, Carnegie Mellon
 University), and the Gaussian 82(TM) system (copyright 1983,
 Carnegie Mellon University). Gaussian is a federally registered
 trademark of Gaussian, Inc.
  
 This software contains proprietary and confidential information,
 including trade secrets, belonging to Gaussian, Inc.
  
 This software is provided under written license and may be
 used, copied, transmitted, or stored only in accord with that
 written license.
  
 The following legend is applicable only to US Government
 contracts under FAR:
  
                    RESTRICTED RIGHTS LEGEND
  
 Use, reproduction and disclosure by the US Government is
 subject to restrictions as set forth in subparagraphs (a)
 and (c) of the Commercial Computer Software - Restricted
 Rights clause in FAR 52.227-19.
  
 Gaussian, Inc.
 340 Quinnipiac St., Bldg. 40, Wallingford CT 06492
  
  
 ---------------------------------------------------------------
 Warning -- This program may not be used in any manner that
 competes with the business of Gaussian, Inc. or will provide
 assistance to any competitor of Gaussian, Inc.  The licensee
 of this program is prohibited from giving any competitor of
 Gaussian, Inc. access to this program.  By using this program,
 the user acknowledges that Gaussian, Inc. is engaged in the
 business of creating and licensing software in the field of
 computational chemistry and represents and warrants to the
 licensee that it is not a competitor of Gaussian, Inc. and that
 it will not use this program in any manner prohibited above.
 ---------------------------------------------------------------
  

 Cite this work as:
 Gaussian 09, Revision B.01,
 M. J. Frisch, G. W. Trucks, H. B. Schlegel, G. E. Scuseria, 
 M. A. Robb, J. R. Cheeseman, G. Scalmani, V. Barone, B. Mennucci, 
 G. A. Petersson, H. Nakatsuji, M. Caricato, X. Li, H. P. Hratchian, 
 A. F. Izmaylov, J. Bloino, G. Zheng, J. L. Sonnenberg, M. Hada, 
 M. Ehara, K. Toyota, R. Fukuda, J. Hasegawa, M. Ishida, T. Nakajima, 
 Y. Honda, O. Kitao, H. Nakai, T. Vreven, J. A. Montgomery, Jr., 
 J. E. Peralta, F. Ogliaro, M. Bearpark, J. J. Heyd, E. Brothers, 
 K. N. Kudin, V. N. Staroverov, T. Keith, R. Kobayashi, J. Normand, 
 K. Raghavachari, A. Rendell, J. C. Burant, S. S. Iyengar, J. Tomasi, 
 M. Cossi, N. Rega, J. M. Millam, M. Klene, J. E. Knox, J. B. Cross, 
 V. Bakken, C. Adamo, J. Jaramillo, R. Gomperts, R. E. Stratmann, 
 O. Yazyev, A. J. Austin, R. Cammi, C. Pomelli, J. W. Ochterski, 
 R. L. Martin, K. Morokuma, V. G. Zakrzewski, G. A. Voth, 
 P. Salvador, J. J. Dannenberg, S. Dapprich, A. D. Daniels, 
 O. Farkas, J. B. Foresman, J. V. Ortiz, J. Cioslowski, 
 and D. J. Fox, Gaussian, Inc., Wallingford CT, 2010.
 
 ******************************************
 Gaussian 09:  EM64L-G09RevB.01 12-Aug-2010
                24-Mar-2021 
 ******************************************
 %mem=600MW
 %nprocshared=10
 Will use up to   10 processors via shared memory.
 ---------------------------------------
 # opt rb3lyp/6-31g(d) geom=connectivity
 ---------------------------------------
 1/14=-1,18=20,19=15,26=3,38=1,57=2/1,3;
 2/9=110,12=2,17=6,18=5,40=1/2;
 3/5=1,6=6,7=1,11=2,16=1,25=1,30=1,71=1,74=-5,116=1/1,2,3;
 4//1;
 5/5=2,38=5/2;
 6/7=2,8=2,9=2,10=2,28=1/1;
 7//1,2,3,16;
 1/14=-1,18=20,19=15/3(2);
 2/9=110/2;
 99//99;
 2/9=110/2;
 3/5=1,6=6,7=1,11=2,16=1,25=1,30=1,71=1,74=-5,116=1/1,2,3;
 4/5=5,16=3/1;
 5/5=2,38=5/2;
 7//1,2,3,16;
 1/14=-1,18=20,19=15/3(-5);
 2/9=110/2;
 6/7=2,8=2,9=2,10=2,19=2,28=1/1;
 99/9=1/99;
 -------------------
 Title Card Required
 -------------------
 Symbolic Z-matrix:
 Charge =  0 Multiplicity = 1
 C                     0.        0.        0. 
 C                     1.3414    0.        0. 
 C                     2.1348    1.2849    0. 
 C                     1.3354    2.5831   -0.3103 
 C                    -0.1587    2.4585   -0.6478 
 C                    -0.8323    1.2407    0.0168 
 C                     2.1426    3.2917   -1.416 
 C                     1.7777    2.9187   -2.8114 
 C                     0.5535    2.5209   -3.1705 
 C                    -0.5111    2.4517   -2.1432 
 C                     0.3017    2.0407   -4.5477 
 O                     0.1299    0.8289   -4.7139 
 C                     0.2619    3.0105   -5.7348 
 C                     0.3079    4.518    -5.4333 
 C                     1.3966    2.6392   -6.6958 
 O                    -1.6897    2.4295   -2.507 
 C                     3.5517    2.7414   -1.3701 
 C                     4.0518    2.9715   -2.8112 
 O                     2.8808    2.838    -3.6566 
 C                     3.3075    1.2704   -0.9965 
 O                     2.1004    4.7034   -1.2921 
 C                    -0.719     3.7555   -0.0557 
 C                     0.1201    3.9535    1.199 
 O                     1.4237    3.4372    0.8734 
 C                     0.2795    5.355     1.7433 
 C                     1.2105    5.4798    2.9229 
 C                    -0.3611    6.4407    1.2769 
 C                     4.6344    4.3778   -3.0235 
 C                     5.0955    1.9468   -3.269 
 H                     4.1865    3.2347   -0.625 
 H                     2.5711    1.3792    1.0055 
 C                     2.1106   -1.2914    0.0909 
 H                    -0.5436   -0.9422    0.0459 
 H                    -1.7869    1.0136   -0.4743 
 H                    -1.0881    1.4418    1.0642 
 H                    -0.688     2.8043   -6.2472 
 H                     0.4938    5.0608   -6.3693 
 H                     1.1393    4.7721   -4.7685 
 H                     2.3769    2.8608   -6.2622 
 H                     1.309     3.1965   -7.6346 
 H                     1.3779    1.5721   -6.9423 
 H                     3.0459    0.6665   -1.8741 
 H                     4.2066    0.8249   -0.5558 
 H                     2.1593    4.8895   -0.3328 
 H                    -1.7907    3.7091    0.1683 
 H                    -0.5749    4.5767   -0.7691 
 H                    -0.2761    3.3249    2.0061 
 H                     0.8976    4.805     3.7265 
 H                     2.2355    5.2272    2.6334 
 H                     1.2248    6.4953    3.3331 
 H                    -1.0588    6.4011    0.4475 
 H                    -0.2093    7.4198    1.723 
 H                     4.9709    4.5024   -4.0597 
 H                     5.4874    4.5586   -2.3614 
 H                     3.8951    5.1669   -2.8633 
 H                     5.4417    2.1741   -4.2843 
 H                     5.9646    1.9381   -2.6033 
 H                     4.6823    0.9351   -3.3255 
 H                     1.4513   -2.1537    0.2381 
 H                     2.6834   -1.4688   -0.8243 
 H                     2.8038   -1.2604    0.9379 
 C                    -0.9914    5.0624   -4.8553 
 H                    -0.9297    6.1516   -4.7612 
 H                    -1.8395    4.8301   -5.5072 
 H                    -1.1998    4.6603   -3.8629 
 

 GradGradGradGradGradGradGradGradGradGradGradGradGradGradGradGradGradGrad
 Berny optimization.
 Initialization pass.
                           ----------------------------
                           !    Initial Parameters    !
                           ! (Angstroms and Degrees)  !
 --------------------------                            --------------------------
 ! Name  Definition              Value          Derivative Info.                !
 --------------------------------------------------------------------------------
 ! R1    R(1,2)                  1.3414         estimate D2E/DX2                !
 ! R2    R(1,6)                  1.4941         estimate D2E/DX2                !
 ! R3    R(1,33)                 1.0887         estimate D2E/DX2                !
 ! R4    R(2,3)                  1.5101         estimate D2E/DX2                !
 ! R5    R(2,32)                 1.5059         estimate D2E/DX2                !
 ! R6    R(3,4)                  1.5558         estimate D2E/DX2                !
 ! R7    R(3,20)                 1.539          estimate D2E/DX2                !
 ! R8    R(3,31)                 1.1001         estimate D2E/DX2                !
 ! R9    R(4,5)                  1.5368         estimate D2E/DX2                !
 ! R10   R(4,7)                  1.5415         estimate D2E/DX2                !
 ! R11   R(4,24)                 1.4623         estimate D2E/DX2                !
 ! R12   R(5,6)                  1.5422         estimate D2E/DX2                !
 ! R13   R(5,10)                 1.5364         estimate D2E/DX2                !
 ! R14   R(5,22)                 1.5319         estimate D2E/DX2                !
 ! R15   R(6,34)                 1.0973         estimate D2E/DX2                !
 ! R16   R(6,35)                 1.0968         estimate D2E/DX2                !
 ! R17   R(7,8)                  1.4898         estimate D2E/DX2                !
 ! R18   R(7,17)                 1.5134         estimate D2E/DX2                !
 ! R19   R(7,21)                 1.4178         estimate D2E/DX2                !
 ! R20   R(8,9)                  1.3364         estimate D2E/DX2                !
 ! R21   R(8,19)                 1.392          estimate D2E/DX2                !
 ! R22   R(9,10)                 1.481          estimate D2E/DX2                !
 ! R23   R(9,11)                 1.4801         estimate D2E/DX2                !
 ! R24   R(10,16)                1.2337         estimate D2E/DX2                !
 ! R25   R(11,12)                1.2352         estimate D2E/DX2                !
 ! R26   R(11,13)                1.5334         estimate D2E/DX2                !
 ! R27   R(13,14)                1.538          estimate D2E/DX2                !
 ! R28   R(13,15)                1.5326         estimate D2E/DX2                !
 ! R29   R(13,36)                1.0988         estimate D2E/DX2                !
 ! R30   R(14,37)                1.0979         estimate D2E/DX2                !
 ! R31   R(14,38)                1.0944         estimate D2E/DX2                !
 ! R32   R(14,62)                1.5227         estimate D2E/DX2                !
 ! R33   R(15,39)                1.0946         estimate D2E/DX2                !
 ! R34   R(15,40)                1.0953         estimate D2E/DX2                !
 ! R35   R(15,41)                1.0954         estimate D2E/DX2                !
 ! R36   R(17,18)                1.5427         estimate D2E/DX2                !
 ! R37   R(17,20)                1.5372         estimate D2E/DX2                !
 ! R38   R(17,30)                1.0961         estimate D2E/DX2                !
 ! R39   R(18,19)                1.4504         estimate D2E/DX2                !
 ! R40   R(18,28)                1.5369         estimate D2E/DX2                !
 ! R41   R(18,29)                1.5326         estimate D2E/DX2                !
 ! R42   R(20,42)                1.097          estimate D2E/DX2                !
 ! R43   R(20,43)                1.0959         estimate D2E/DX2                !
 ! R44   R(21,44)                0.979          estimate D2E/DX2                !
 ! R45   R(22,23)                1.5224         estimate D2E/DX2                !
 ! R46   R(22,45)                1.0958         estimate D2E/DX2                !
 ! R47   R(22,46)                1.0973         estimate D2E/DX2                !
 ! R48   R(23,24)                1.4394         estimate D2E/DX2                !
 ! R49   R(23,25)                1.5119         estimate D2E/DX2                !
 ! R50   R(23,47)                1.0971         estimate D2E/DX2                !
 ! R51   R(25,26)                1.5079         estimate D2E/DX2                !
 ! R52   R(25,27)                1.3441         estimate D2E/DX2                !
 ! R53   R(26,48)                1.095          estimate D2E/DX2                !
 ! R54   R(26,49)                1.0946         estimate D2E/DX2                !
 ! R55   R(26,50)                1.0953         estimate D2E/DX2                !
 ! R56   R(27,51)                1.0846         estimate D2E/DX2                !
 ! R57   R(27,52)                1.0866         estimate D2E/DX2                !
 ! R58   R(28,53)                1.0966         estimate D2E/DX2                !
 ! R59   R(28,54)                1.0948         estimate D2E/DX2                !
 ! R60   R(28,55)                1.0931         estimate D2E/DX2                !
 ! R61   R(29,56)                1.0965         estimate D2E/DX2                !
 ! R62   R(29,57)                1.0948         estimate D2E/DX2                !
 ! R63   R(29,58)                1.0943         estimate D2E/DX2                !
 ! R64   R(32,59)                1.0954         estimate D2E/DX2                !
 ! R65   R(32,60)                1.0941         estimate D2E/DX2                !
 ! R66   R(32,61)                1.0949         estimate D2E/DX2                !
 ! R67   R(62,63)                1.095          estimate D2E/DX2                !
 ! R68   R(62,64)                1.0946         estimate D2E/DX2                !
 ! R69   R(62,65)                1.0909         estimate D2E/DX2                !
 ! A1    A(2,1,6)              123.8525         estimate D2E/DX2                !
 ! A2    A(2,1,33)             119.9533         estimate D2E/DX2                !
 ! A3    A(6,1,33)             116.1053         estimate D2E/DX2                !
 ! A4    A(1,2,3)              121.6945         estimate D2E/DX2                !
 ! A5    A(1,2,32)             120.7172         estimate D2E/DX2                !
 ! A6    A(3,2,32)             117.4717         estimate D2E/DX2                !
 ! A7    A(2,3,4)              116.1047         estimate D2E/DX2                !
 ! A8    A(2,3,20)             113.0996         estimate D2E/DX2                !
 ! A9    A(2,3,31)             106.3377         estimate D2E/DX2                !
 ! A10   A(4,3,20)             105.6786         estimate D2E/DX2                !
 ! A11   A(4,3,31)             108.3327         estimate D2E/DX2                !
 ! A12   A(20,3,31)            106.883          estimate D2E/DX2                !
 ! A13   A(3,4,5)              118.4034         estimate D2E/DX2                !
 ! A14   A(3,4,7)              104.9255         estimate D2E/DX2                !
 ! A15   A(3,4,24)             107.1504         estimate D2E/DX2                !
 ! A16   A(5,4,7)              112.8822         estimate D2E/DX2                !
 ! A17   A(5,4,24)             106.4887         estimate D2E/DX2                !
 ! A18   A(7,4,24)             106.2906         estimate D2E/DX2                !
 ! A19   A(4,5,6)              113.2047         estimate D2E/DX2                !
 ! A20   A(4,5,10)             115.9197         estimate D2E/DX2                !
 ! A21   A(4,5,22)             101.6576         estimate D2E/DX2                !
 ! A22   A(6,5,10)             108.407          estimate D2E/DX2                !
 ! A23   A(6,5,22)             110.0135         estimate D2E/DX2                !
 ! A24   A(10,5,22)            107.221          estimate D2E/DX2                !
 ! A25   A(1,6,5)              114.0517         estimate D2E/DX2                !
 ! A26   A(1,6,34)             107.9223         estimate D2E/DX2                !
 ! A27   A(1,6,35)             107.0327         estimate D2E/DX2                !
 ! A28   A(5,6,34)             110.5202         estimate D2E/DX2                !
 ! A29   A(5,6,35)             111.6304         estimate D2E/DX2                !
 ! A30   A(34,6,35)            105.216          estimate D2E/DX2                !
 ! A31   A(4,7,8)              115.3721         estimate D2E/DX2                !
 ! A32   A(4,7,17)             107.3762         estimate D2E/DX2                !
 ! A33   A(4,7,21)             112.2993         estimate D2E/DX2                !
 ! A34   A(8,7,17)              99.5216         estimate D2E/DX2                !
 ! A35   A(8,7,21)             108.8971         estimate D2E/DX2                !
 ! A36   A(17,7,21)            112.7753         estimate D2E/DX2                !
 ! A37   A(7,8,9)              123.4083         estimate D2E/DX2                !
 ! A38   A(7,8,19)             112.9004         estimate D2E/DX2                !
 ! A39   A(9,8,19)             123.0604         estimate D2E/DX2                !
 ! A40   A(8,9,10)             119.0783         estimate D2E/DX2                !
 ! A41   A(8,9,11)             120.1627         estimate D2E/DX2                !
 ! A42   A(10,9,11)            120.5283         estimate D2E/DX2                !
 ! A43   A(5,10,9)             120.667          estimate D2E/DX2                !
 ! A44   A(5,10,16)            120.4136         estimate D2E/DX2                !
 ! A45   A(9,10,16)            118.883          estimate D2E/DX2                !
 ! A46   A(9,11,12)            117.8509         estimate D2E/DX2                !
 ! A47   A(9,11,13)            121.3034         estimate D2E/DX2                !
 ! A48   A(12,11,13)           120.8449         estimate D2E/DX2                !
 ! A49   A(11,13,14)           117.863          estimate D2E/DX2                !
 ! A50   A(11,13,15)           108.2393         estimate D2E/DX2                !
 ! A51   A(11,13,36)           105.3529         estimate D2E/DX2                !
 ! A52   A(14,13,15)           109.7689         estimate D2E/DX2                !
 ! A53   A(14,13,36)           107.5296         estimate D2E/DX2                !
 ! A54   A(15,13,36)           107.588          estimate D2E/DX2                !
 ! A55   A(13,14,37)           108.8164         estimate D2E/DX2                !
 ! A56   A(13,14,38)           111.6764         estimate D2E/DX2                !
 ! A57   A(13,14,62)           113.5351         estimate D2E/DX2                !
 ! A58   A(37,14,38)           105.93           estimate D2E/DX2                !
 ! A59   A(37,14,62)           106.9386         estimate D2E/DX2                !
 ! A60   A(38,14,62)           109.55           estimate D2E/DX2                !
 ! A61   A(13,15,39)           111.4465         estimate D2E/DX2                !
 ! A62   A(13,15,40)           110.7916         estimate D2E/DX2                !
 ! A63   A(13,15,41)           111.3757         estimate D2E/DX2                !
 ! A64   A(39,15,40)           107.9485         estimate D2E/DX2                !
 ! A65   A(39,15,41)           107.5576         estimate D2E/DX2                !
 ! A66   A(40,15,41)           107.5442         estimate D2E/DX2                !
 ! A67   A(7,17,18)            102.6658         estimate D2E/DX2                !
 ! A68   A(7,17,20)            101.9706         estimate D2E/DX2                !
 ! A69   A(7,17,30)            113.3397         estimate D2E/DX2                !
 ! A70   A(18,17,20)           114.9145         estimate D2E/DX2                !
 ! A71   A(18,17,30)           112.3421         estimate D2E/DX2                !
 ! A72   A(20,17,30)           110.9435         estimate D2E/DX2                !
 ! A73   A(17,18,19)           105.6067         estimate D2E/DX2                !
 ! A74   A(17,18,28)           112.8551         estimate D2E/DX2                !
 ! A75   A(17,18,29)           113.583          estimate D2E/DX2                !
 ! A76   A(19,18,28)           108.0437         estimate D2E/DX2                !
 ! A77   A(19,18,29)           108.3098         estimate D2E/DX2                !
 ! A78   A(28,18,29)           108.2018         estimate D2E/DX2                !
 ! A79   A(8,19,18)            106.2926         estimate D2E/DX2                !
 ! A80   A(3,20,17)            105.6287         estimate D2E/DX2                !
 ! A81   A(3,20,42)            109.9679         estimate D2E/DX2                !
 ! A82   A(3,20,43)            111.629          estimate D2E/DX2                !
 ! A83   A(17,20,42)           111.7314         estimate D2E/DX2                !
 ! A84   A(17,20,43)           110.879          estimate D2E/DX2                !
 ! A85   A(42,20,43)           107.0717         estimate D2E/DX2                !
 ! A86   A(7,21,44)            105.8509         estimate D2E/DX2                !
 ! A87   A(5,22,23)            103.125          estimate D2E/DX2                !
 ! A88   A(5,22,45)            113.6316         estimate D2E/DX2                !
 ! A89   A(5,22,46)            109.5302         estimate D2E/DX2                !
 ! A90   A(23,22,45)           112.091          estimate D2E/DX2                !
 ! A91   A(23,22,46)           111.4763         estimate D2E/DX2                !
 ! A92   A(45,22,46)           107.0383         estimate D2E/DX2                !
 ! A93   A(22,23,24)           105.4319         estimate D2E/DX2                !
 ! A94   A(22,23,25)           118.3846         estimate D2E/DX2                !
 ! A95   A(22,23,47)           109.4368         estimate D2E/DX2                !
 ! A96   A(24,23,25)           108.5688         estimate D2E/DX2                !
 ! A97   A(24,23,47)           106.7361         estimate D2E/DX2                !
 ! A98   A(25,23,47)           107.7199         estimate D2E/DX2                !
 ! A99   A(4,24,23)            109.7496         estimate D2E/DX2                !
 ! A100  A(23,25,26)           115.0518         estimate D2E/DX2                !
 ! A101  A(23,25,27)           125.0009         estimate D2E/DX2                !
 ! A102  A(26,25,27)           119.9239         estimate D2E/DX2                !
 ! A103  A(25,26,48)           110.2834         estimate D2E/DX2                !
 ! A104  A(25,26,49)           110.6185         estimate D2E/DX2                !
 ! A105  A(25,26,50)           112.195          estimate D2E/DX2                !
 ! A106  A(48,26,49)           108.6299         estimate D2E/DX2                !
 ! A107  A(48,26,50)           107.4719         estimate D2E/DX2                !
 ! A108  A(49,26,50)           107.5036         estimate D2E/DX2                !
 ! A109  A(25,27,51)           122.8516         estimate D2E/DX2                !
 ! A110  A(25,27,52)           121.2515         estimate D2E/DX2                !
 ! A111  A(51,27,52)           115.8957         estimate D2E/DX2                !
 ! A112  A(18,28,53)           110.5374         estimate D2E/DX2                !
 ! A113  A(18,28,54)           111.2785         estimate D2E/DX2                !
 ! A114  A(18,28,55)           112.5759         estimate D2E/DX2                !
 ! A115  A(53,28,54)           108.2767         estimate D2E/DX2                !
 ! A116  A(53,28,55)           105.3075         estimate D2E/DX2                !
 ! A117  A(54,28,55)           108.608          estimate D2E/DX2                !
 ! A118  A(18,29,56)           110.6705         estimate D2E/DX2                !
 ! A119  A(18,29,57)           111.3638         estimate D2E/DX2                !
 ! A120  A(18,29,58)           112.112          estimate D2E/DX2                !
 ! A121  A(56,29,57)           108.3023         estimate D2E/DX2                !
 ! A122  A(56,29,58)           105.2516         estimate D2E/DX2                !
 ! A123  A(57,29,58)           108.8931         estimate D2E/DX2                !
 ! A124  A(2,32,59)            112.071          estimate D2E/DX2                !
 ! A125  A(2,32,60)            110.8525         estimate D2E/DX2                !
 ! A126  A(2,32,61)            110.2306         estimate D2E/DX2                !
 ! A127  A(59,32,60)           107.4492         estimate D2E/DX2                !
 ! A128  A(59,32,61)           107.4205         estimate D2E/DX2                !
 ! A129  A(60,32,61)           108.675          estimate D2E/DX2                !
 ! A130  A(14,62,63)           109.8872         estimate D2E/DX2                !
 ! A131  A(14,62,64)           111.0496         estimate D2E/DX2                !
 ! A132  A(14,62,65)           112.1204         estimate D2E/DX2                !
 ! A133  A(63,62,64)           107.8142         estimate D2E/DX2                !
 ! A134  A(63,62,65)           107.4121         estimate D2E/DX2                !
 ! A135  A(64,62,65)           108.394          estimate D2E/DX2                !
 ! D1    D(6,1,2,3)             -0.7758         estimate D2E/DX2                !
 ! D2    D(6,1,2,32)           175.1979         estimate D2E/DX2                !
 ! D3    D(33,1,2,3)          -177.211          estimate D2E/DX2                !
 ! D4    D(33,1,2,32)           -1.2373         estimate D2E/DX2                !
 ! D5    D(2,1,6,5)             28.9189         estimate D2E/DX2                !
 ! D6    D(2,1,6,34)           152.1343         estimate D2E/DX2                !
 ! D7    D(2,1,6,35)           -95.0617         estimate D2E/DX2                !
 ! D8    D(33,1,6,5)          -154.5204         estimate D2E/DX2                !
 ! D9    D(33,1,6,34)          -31.305          estimate D2E/DX2                !
 ! D10   D(33,1,6,35)           81.499          estimate D2E/DX2                !
 ! D11   D(1,2,3,4)            -12.8323         estimate D2E/DX2                !
 ! D12   D(1,2,3,20)          -135.2554         estimate D2E/DX2                !
 ! D13   D(1,2,3,31)           107.7409         estimate D2E/DX2                !
 ! D14   D(32,2,3,4)           171.0689         estimate D2E/DX2                !
 ! D15   D(32,2,3,20)           48.6458         estimate D2E/DX2                !
 ! D16   D(32,2,3,31)          -68.358          estimate D2E/DX2                !
 ! D17   D(1,2,32,59)           -4.8763         estimate D2E/DX2                !
 ! D18   D(1,2,32,60)          115.17           estimate D2E/DX2                !
 ! D19   D(1,2,32,61)         -124.4621         estimate D2E/DX2                !
 ! D20   D(3,2,32,59)          171.2627         estimate D2E/DX2                !
 ! D21   D(3,2,32,60)          -68.691          estimate D2E/DX2                !
 ! D22   D(3,2,32,61)           51.6769         estimate D2E/DX2                !
 ! D23   D(2,3,4,5)             -2.5975         estimate D2E/DX2                !
 ! D24   D(2,3,4,7)           -129.5845         estimate D2E/DX2                !
 ! D25   D(2,3,4,24)           117.7052         estimate D2E/DX2                !
 ! D26   D(20,3,4,5)           123.6529         estimate D2E/DX2                !
 ! D27   D(20,3,4,7)            -3.334          estimate D2E/DX2                !
 ! D28   D(20,3,4,24)         -116.0443         estimate D2E/DX2                !
 ! D29   D(31,3,4,5)          -122.0935         estimate D2E/DX2                !
 ! D30   D(31,3,4,7)           110.9196         estimate D2E/DX2                !
 ! D31   D(31,3,4,24)           -1.7908         estimate D2E/DX2                !
 ! D32   D(2,3,20,17)          153.3882         estimate D2E/DX2                !
 ! D33   D(2,3,20,42)           32.6776         estimate D2E/DX2                !
 ! D34   D(2,3,20,43)          -86.0125         estimate D2E/DX2                !
 ! D35   D(4,3,20,17)           25.322          estimate D2E/DX2                !
 ! D36   D(4,3,20,42)          -95.3887         estimate D2E/DX2                !
 ! D37   D(4,3,20,43)          145.9212         estimate D2E/DX2                !
 ! D38   D(31,3,20,17)         -89.9295         estimate D2E/DX2                !
 ! D39   D(31,3,20,42)         149.3599         estimate D2E/DX2                !
 ! D40   D(31,3,20,43)          30.6698         estimate D2E/DX2                !
 ! D41   D(3,4,5,6)             28.8925         estimate D2E/DX2                !
 ! D42   D(3,4,5,10)           -97.2878         estimate D2E/DX2                !
 ! D43   D(3,4,5,22)           146.8395         estimate D2E/DX2                !
 ! D44   D(7,4,5,6)            151.9893         estimate D2E/DX2                !
 ! D45   D(7,4,5,10)            25.8091         estimate D2E/DX2                !
 ! D46   D(7,4,5,22)           -90.0636         estimate D2E/DX2                !
 ! D47   D(24,4,5,6)           -91.7502         estimate D2E/DX2                !
 ! D48   D(24,4,5,10)          142.0696         estimate D2E/DX2                !
 ! D49   D(24,4,5,22)           26.1968         estimate D2E/DX2                !
 ! D50   D(3,4,7,8)             89.5656         estimate D2E/DX2                !
 ! D51   D(3,4,7,17)           -20.3255         estimate D2E/DX2                !
 ! D52   D(3,4,7,21)          -144.8495         estimate D2E/DX2                !
 ! D53   D(5,4,7,8)            -40.7377         estimate D2E/DX2                !
 ! D54   D(5,4,7,17)          -150.6288         estimate D2E/DX2                !
 ! D55   D(5,4,7,21)            84.8472         estimate D2E/DX2                !
 ! D56   D(24,4,7,8)          -157.116          estimate D2E/DX2                !
 ! D57   D(24,4,7,17)           92.9929         estimate D2E/DX2                !
 ! D58   D(24,4,7,21)          -31.5311         estimate D2E/DX2                !
 ! D59   D(3,4,24,23)         -133.5698         estimate D2E/DX2                !
 ! D60   D(5,4,24,23)           -5.9436         estimate D2E/DX2                !
 ! D61   D(7,4,24,23)          114.6523         estimate D2E/DX2                !
 ! D62   D(4,5,6,1)            -41.1105         estimate D2E/DX2                !
 ! D63   D(4,5,6,34)          -162.9042         estimate D2E/DX2                !
 ! D64   D(4,5,6,35)            80.3592         estimate D2E/DX2                !
 ! D65   D(10,5,6,1)            88.9723         estimate D2E/DX2                !
 ! D66   D(10,5,6,34)          -32.8214         estimate D2E/DX2                !
 ! D67   D(10,5,6,35)         -149.558          estimate D2E/DX2                !
 ! D68   D(22,5,6,1)          -154.0728         estimate D2E/DX2                !
 ! D69   D(22,5,6,34)           84.1335         estimate D2E/DX2                !
 ! D70   D(22,5,6,35)          -32.6031         estimate D2E/DX2                !
 ! D71   D(4,5,10,9)             1.7838         estimate D2E/DX2                !
 ! D72   D(4,5,10,16)         -175.9985         estimate D2E/DX2                !
 ! D73   D(6,5,10,9)          -126.7842         estimate D2E/DX2                !
 ! D74   D(6,5,10,16)           55.4335         estimate D2E/DX2                !
 ! D75   D(22,5,10,9)          114.4799         estimate D2E/DX2                !
 ! D76   D(22,5,10,16)         -63.3024         estimate D2E/DX2                !
 ! D77   D(4,5,22,23)          -35.8292         estimate D2E/DX2                !
 ! D78   D(4,5,22,45)         -157.3989         estimate D2E/DX2                !
 ! D79   D(4,5,22,46)           82.9604         estimate D2E/DX2                !
 ! D80   D(6,5,22,23)           84.3908         estimate D2E/DX2                !
 ! D81   D(6,5,22,45)          -37.179          estimate D2E/DX2                !
 ! D82   D(6,5,22,46)         -156.8196         estimate D2E/DX2                !
 ! D83   D(10,5,22,23)        -157.9167         estimate D2E/DX2                !
 ! D84   D(10,5,22,45)          80.5136         estimate D2E/DX2                !
 ! D85   D(10,5,22,46)         -39.1271         estimate D2E/DX2                !
 ! D86   D(4,7,8,9)             28.9954         estimate D2E/DX2                !
 ! D87   D(4,7,8,19)          -142.1347         estimate D2E/DX2                !
 ! D88   D(17,7,8,9)           143.4949         estimate D2E/DX2                !
 ! D89   D(17,7,8,19)          -27.6352         estimate D2E/DX2                !
 ! D90   D(21,7,8,9)           -98.321          estimate D2E/DX2                !
 ! D91   D(21,7,8,19)           90.5488         estimate D2E/DX2                !
 ! D92   D(4,7,17,18)          154.8541         estimate D2E/DX2                !
 ! D93   D(4,7,17,20)           35.5781         estimate D2E/DX2                !
 ! D94   D(4,7,17,30)          -83.7258         estimate D2E/DX2                !
 ! D95   D(8,7,17,18)           34.3405         estimate D2E/DX2                !
 ! D96   D(8,7,17,20)          -84.9355         estimate D2E/DX2                !
 ! D97   D(8,7,17,30)          155.7606         estimate D2E/DX2                !
 ! D98   D(21,7,17,18)         -80.9106         estimate D2E/DX2                !
 ! D99   D(21,7,17,20)         159.8134         estimate D2E/DX2                !
 ! D100  D(21,7,17,30)          40.5095         estimate D2E/DX2                !
 ! D101  D(4,7,21,44)           39.4133         estimate D2E/DX2                !
 ! D102  D(8,7,21,44)          168.4564         estimate D2E/DX2                !
 ! D103  D(17,7,21,44)         -82.0712         estimate D2E/DX2                !
 ! D104  D(7,8,9,10)             0.5124         estimate D2E/DX2                !
 ! D105  D(7,8,9,11)          -173.998          estimate D2E/DX2                !
 ! D106  D(19,8,9,10)          170.755          estimate D2E/DX2                !
 ! D107  D(19,8,9,11)           -3.7555         estimate D2E/DX2                !
 ! D108  D(7,8,19,18)            7.853          estimate D2E/DX2                !
 ! D109  D(9,8,19,18)         -163.3126         estimate D2E/DX2                !
 ! D110  D(8,9,10,5)           -16.4741         estimate D2E/DX2                !
 ! D111  D(8,9,10,16)          161.3416         estimate D2E/DX2                !
 ! D112  D(11,9,10,5)          158.0157         estimate D2E/DX2                !
 ! D113  D(11,9,10,16)         -24.1686         estimate D2E/DX2                !
 ! D114  D(8,9,11,12)          106.7951         estimate D2E/DX2                !
 ! D115  D(8,9,11,13)          -72.8757         estimate D2E/DX2                !
 ! D116  D(10,9,11,12)         -67.6349         estimate D2E/DX2                !
 ! D117  D(10,9,11,13)         112.6943         estimate D2E/DX2                !
 ! D118  D(9,11,13,14)          -7.8407         estimate D2E/DX2                !
 ! D119  D(9,11,13,15)         117.4013         estimate D2E/DX2                !
 ! D120  D(9,11,13,36)        -127.7383         estimate D2E/DX2                !
 ! D121  D(12,11,13,14)        172.4984         estimate D2E/DX2                !
 ! D122  D(12,11,13,15)        -62.2597         estimate D2E/DX2                !
 ! D123  D(12,11,13,36)         52.6008         estimate D2E/DX2                !
 ! D124  D(11,13,14,37)        167.6933         estimate D2E/DX2                !
 ! D125  D(11,13,14,38)         51.1124         estimate D2E/DX2                !
 ! D126  D(11,13,14,62)        -73.351          estimate D2E/DX2                !
 ! D127  D(15,13,14,37)         43.2075         estimate D2E/DX2                !
 ! D128  D(15,13,14,38)        -73.3734         estimate D2E/DX2                !
 ! D129  D(15,13,14,62)        162.1632         estimate D2E/DX2                !
 ! D130  D(36,13,14,37)        -73.5526         estimate D2E/DX2                !
 ! D131  D(36,13,14,38)        169.8665         estimate D2E/DX2                !
 ! D132  D(36,13,14,62)         45.403          estimate D2E/DX2                !
 ! D133  D(11,13,15,39)        -69.0334         estimate D2E/DX2                !
 ! D134  D(11,13,15,40)        170.7476         estimate D2E/DX2                !
 ! D135  D(11,13,15,41)         51.0861         estimate D2E/DX2                !
 ! D136  D(14,13,15,39)         60.8585         estimate D2E/DX2                !
 ! D137  D(14,13,15,40)        -59.3605         estimate D2E/DX2                !
 ! D138  D(14,13,15,41)       -179.022          estimate D2E/DX2                !
 ! D139  D(36,13,15,39)        177.582          estimate D2E/DX2                !
 ! D140  D(36,13,15,40)         57.363          estimate D2E/DX2                !
 ! D141  D(36,13,15,41)        -62.2985         estimate D2E/DX2                !
 ! D142  D(13,14,62,63)       -174.1503         estimate D2E/DX2                !
 ! D143  D(13,14,62,64)        -54.9534         estimate D2E/DX2                !
 ! D144  D(13,14,62,65)         66.4736         estimate D2E/DX2                !
 ! D145  D(37,14,62,63)        -54.1236         estimate D2E/DX2                !
 ! D146  D(37,14,62,64)         65.0733         estimate D2E/DX2                !
 ! D147  D(37,14,62,65)       -173.4997         estimate D2E/DX2                !
 ! D148  D(38,14,62,63)         60.2453         estimate D2E/DX2                !
 ! D149  D(38,14,62,64)        179.4422         estimate D2E/DX2                !
 ! D150  D(38,14,62,65)        -59.1308         estimate D2E/DX2                !
 ! D151  D(7,17,18,19)         -32.232          estimate D2E/DX2                !
 ! D152  D(7,17,18,28)          85.5906         estimate D2E/DX2                !
 ! D153  D(7,17,18,29)        -150.7767         estimate D2E/DX2                !
 ! D154  D(20,17,18,19)         77.5707         estimate D2E/DX2                !
 ! D155  D(20,17,18,28)       -164.6067         estimate D2E/DX2                !
 ! D156  D(20,17,18,29)        -40.974          estimate D2E/DX2                !
 ! D157  D(30,17,18,19)       -154.3309         estimate D2E/DX2                !
 ! D158  D(30,17,18,28)        -36.5083         estimate D2E/DX2                !
 ! D159  D(30,17,18,29)         87.1244         estimate D2E/DX2                !
 ! D160  D(7,17,20,3)          -37.3275         estimate D2E/DX2                !
 ! D161  D(7,17,20,42)          82.226          estimate D2E/DX2                !
 ! D162  D(7,17,20,43)        -158.4153         estimate D2E/DX2                !
 ! D163  D(18,17,20,3)        -147.547          estimate D2E/DX2                !
 ! D164  D(18,17,20,42)        -27.9935         estimate D2E/DX2                !
 ! D165  D(18,17,20,43)         91.3652         estimate D2E/DX2                !
 ! D166  D(30,17,20,3)          83.6556         estimate D2E/DX2                !
 ! D167  D(30,17,20,42)       -156.7909         estimate D2E/DX2                !
 ! D168  D(30,17,20,43)        -37.4322         estimate D2E/DX2                !
 ! D169  D(17,18,19,8)          15.478          estimate D2E/DX2                !
 ! D170  D(28,18,19,8)        -105.5278         estimate D2E/DX2                !
 ! D171  D(29,18,19,8)         137.4819         estimate D2E/DX2                !
 ! D172  D(17,18,28,53)       -179.5989         estimate D2E/DX2                !
 ! D173  D(17,18,28,54)         60.0505         estimate D2E/DX2                !
 ! D174  D(17,18,28,55)        -62.1427         estimate D2E/DX2                !
 ! D175  D(19,18,28,53)        -63.2164         estimate D2E/DX2                !
 ! D176  D(19,18,28,54)        176.433          estimate D2E/DX2                !
 ! D177  D(19,18,28,55)         54.2399         estimate D2E/DX2                !
 ! D178  D(29,18,28,53)         53.8437         estimate D2E/DX2                !
 ! D179  D(29,18,28,54)        -66.507          estimate D2E/DX2                !
 ! D180  D(29,18,28,55)        171.2999         estimate D2E/DX2                !
 ! D181  D(17,18,29,56)       -178.1075         estimate D2E/DX2                !
 ! D182  D(17,18,29,57)        -57.578          estimate D2E/DX2                !
 ! D183  D(17,18,29,58)         64.7138         estimate D2E/DX2                !
 ! D184  D(19,18,29,56)         64.9139         estimate D2E/DX2                !
 ! D185  D(19,18,29,57)       -174.5566         estimate D2E/DX2                !
 ! D186  D(19,18,29,58)        -52.2648         estimate D2E/DX2                !
 ! D187  D(28,18,29,56)        -51.9745         estimate D2E/DX2                !
 ! D188  D(28,18,29,57)         68.555          estimate D2E/DX2                !
 ! D189  D(28,18,29,58)       -169.1532         estimate D2E/DX2                !
 ! D190  D(5,22,23,24)          33.5052         estimate D2E/DX2                !
 ! D191  D(5,22,23,25)         155.1504         estimate D2E/DX2                !
 ! D192  D(5,22,23,47)         -80.9636         estimate D2E/DX2                !
 ! D193  D(45,22,23,24)        156.1109         estimate D2E/DX2                !
 ! D194  D(45,22,23,25)        -82.2439         estimate D2E/DX2                !
 ! D195  D(45,22,23,47)         41.6421         estimate D2E/DX2                !
 ! D196  D(46,22,23,24)        -83.9219         estimate D2E/DX2                !
 ! D197  D(46,22,23,25)         37.7233         estimate D2E/DX2                !
 ! D198  D(46,22,23,47)        161.6093         estimate D2E/DX2                !
 ! D199  D(22,23,24,4)         -17.2788         estimate D2E/DX2                !
 ! D200  D(25,23,24,4)        -145.0843         estimate D2E/DX2                !
 ! D201  D(47,23,24,4)          99.0479         estimate D2E/DX2                !
 ! D202  D(22,23,25,26)       -175.4622         estimate D2E/DX2                !
 ! D203  D(22,23,25,27)          6.3075         estimate D2E/DX2                !
 ! D204  D(24,23,25,26)        -55.4235         estimate D2E/DX2                !
 ! D205  D(24,23,25,27)        126.3462         estimate D2E/DX2                !
 ! D206  D(47,23,25,26)         59.8061         estimate D2E/DX2                !
 ! D207  D(47,23,25,27)       -118.4242         estimate D2E/DX2                !
 ! D208  D(23,25,26,48)        -55.2818         estimate D2E/DX2                !
 ! D209  D(23,25,26,49)         64.9126         estimate D2E/DX2                !
 ! D210  D(23,25,26,50)       -175.0498         estimate D2E/DX2                !
 ! D211  D(27,25,26,48)        123.0457         estimate D2E/DX2                !
 ! D212  D(27,25,26,49)       -116.76           estimate D2E/DX2                !
 ! D213  D(27,25,26,50)          3.2777         estimate D2E/DX2                !
 ! D214  D(23,25,27,51)         -0.338          estimate D2E/DX2                !
 ! D215  D(23,25,27,52)        179.2523         estimate D2E/DX2                !
 ! D216  D(26,25,27,51)       -178.4882         estimate D2E/DX2                !
 ! D217  D(26,25,27,52)          1.102          estimate D2E/DX2                !
 --------------------------------------------------------------------------------
 Trust Radius=3.00D-01 FncErr=1.00D-07 GrdErr=1.00D-06
 Number of steps in this run=    390 maximum allowed number of steps=    390.
 GradGradGradGradGradGradGradGradGradGradGradGradGradGradGradGradGradGrad

 Stoichiometry    C26H34O5
 Framework group  C1[X(C26H34O5)]
 Deg. of freedom   189
 Full point group                 C1      NOp   1
 Largest Abelian subgroup         C1      NOp   1
 Largest concise Abelian subgroup C1      NOp   1
                         Standard orientation:                         
 ---------------------------------------------------------------------
 Center     Atomic      Atomic             Coordinates (Angstroms)
 Number     Number       Type             X           Y           Z
 ---------------------------------------------------------------------
      1          6           0        1.533750    1.541145   -2.833947
      2          6           0        1.382386    2.432989   -1.843464
      3          6           0        1.442914    2.023648   -0.391146
      4          6           0        1.378548    0.495250   -0.107411
      5          6           0        1.199572   -0.462056   -1.296234
      6          6           0        1.789139    0.085895   -2.611767
      7          6           0        0.279193    0.335788    0.961350
      8          6           0       -1.100070    0.138629    0.433917
      9          6           0       -1.362720   -0.443543   -0.739946
     10          6           0       -0.237008   -0.934139   -1.567952
     11          6           0       -2.749306   -0.484390   -1.256072
     12          8           0       -3.035433    0.257951   -2.200878
     13          6           0       -3.802900   -1.410648   -0.636968
     14          6           0       -3.334540   -2.430265    0.414980
     15          6           0       -4.922546   -0.541507   -0.053946
     16          8           0       -0.465577   -1.760612   -2.454879
     17          6           0        0.101213    1.681327    1.630939
     18          6           0       -1.350317    1.612123    2.148708
     19          8           0       -2.067950    0.793677    1.190108
     20          6           0        0.325620    2.652143    0.460379
     21          8           0        0.571075   -0.701450    1.882746
     22          6           0        1.998506   -1.684126   -0.832581
     23          6           0        3.164990   -1.066935   -0.073664
     24          8           0        2.636317    0.123366    0.539232
     25          6           0        3.847752   -1.894457    0.991660
     26          6           0        4.921214   -1.174984    1.768725
     27          6           0        3.586621   -3.187678    1.248630
     28          6           0       -1.461306    0.939653    3.526256
     29          6           0       -2.039482    2.978850    2.226243
     30          1           0        0.822401    1.864657    2.435779
     31          1           0        2.396847    2.408192   -0.000739
     32          6           0        1.234466    3.900736   -2.145928
     33          1           0        1.530347    1.874151   -3.870501
     34          1           0        1.385754   -0.462918   -3.472058
     35          1           0        2.874986   -0.060780   -2.660188
     36          1           0       -4.225392   -1.975032   -1.479793
     37          1           0       -4.215702   -2.854370    0.913953
     38          1           0       -2.742705   -1.954853    1.203311
     39          1           0       -4.579440    0.019069    0.821346
     40          1           0       -5.773916   -1.158478    0.252841
     41          1           0       -5.288285    0.184087   -0.788497
     42          1           0       -0.581338    2.776070   -0.144088
     43          1           0        0.606987    3.646278    0.825886
     44          1           0        1.532728   -0.642257    2.056175
     45          1           0        2.335046   -2.326465   -1.654172
     46          1           0        1.374219   -2.302875   -0.175702
     47          1           0        3.932673   -0.741015   -0.786379
     48          1           0        5.670648   -0.760565    1.086348
     49          1           0        4.490395   -0.356321    2.353899
     50          1           0        5.442950   -1.839307    2.465988
     51          1           0        2.842335   -3.757312    0.702908
     52          1           0        4.124014   -3.728215    2.023041
     53          1           0       -2.507171    0.904327    3.853954
     54          1           0       -0.883134    1.482432    4.281095
     55          1           0       -1.127655   -0.101219    3.513234
     56          1           0       -3.053825    2.878486    2.630457
     57          1           0       -1.481704    3.671085    2.865197
     58          1           0       -2.166757    3.432605    1.238635
     59          1           0        1.353405    4.115005   -3.213565
     60          1           0        0.246062    4.262351   -1.846842
     61          1           0        1.995622    4.476506   -1.609247
     62          6           0       -2.554021   -3.597224   -0.174625
     63          1           0       -2.340930   -4.335080    0.605875
     64          1           0       -3.128696   -4.097540   -0.960527
     65          1           0       -1.598237   -3.281509   -0.595070
 ---------------------------------------------------------------------
 Rotational constants (GHZ):      0.1970692      0.1370075      0.1282995
 Standard basis: 6-31G(d) (6D, 7F)
 There are   533 symmetry adapted basis functions of A   symmetry.
 Integral buffers will be    131072 words long.
 Raffenetti 2 integral format.
 Two-electron integral symmetry is turned on.
   533 basis functions,  1004 primitive gaussians,   533 cartesian basis functions
   115 alpha electrons      115 beta electrons
       nuclear repulsion energy      3561.6399550325 Hartrees.
 NAtoms=   65 NActive=   65 NUniq=   65 SFac= 1.00D+00 NAtFMM=   50 NAOKFM=T Big=T
 One-electron integrals computed using PRISM.
 NBasis=   533 RedAO= T  NBF=   533
 NBsUse=   533 1.00D-06 NBFU=   533
 Harris functional with IExCor=  402 diagonalized for initial guess.
 ExpMin= 1.61D-01 ExpMax= 5.48D+03 ExpMxC= 8.25D+02 IAcc=1 IRadAn=         1 AccDes= 0.00D+00
 HarFok:  IExCor=  402 AccDes= 0.00D+00 IRadAn=         1 IDoV= 1
 ScaDFX=  1.000000  1.000000  1.000000  1.000000
 FoFCou: FMM=F IPFlag=           0 FMFlag=      100000 FMFlg1=        2001
         NFxFlg=           0 DoJE=T BraDBF=F KetDBF=T FulRan=T
         Omega=  0.000000  0.000000  1.000000  0.000000  0.000000 ICntrl=     500 IOpCl=  0
         NMat0=    1 NMatS0=    1 NMatT0=    0 NMatD0=    1 NMtDS0=    0 NMtDT0=    0
         I1Cent=           4 NGrid=           0.
 Petite list used in FoFCou.
 Initial guess orbital symmetries:
       Occupied  (A) (A) (A) (A) (A) (A) (A) (A) (A) (A) (A) (A)
                 (A) (A) (A) (A) (A) (A) (A) (A) (A) (A) (A) (A)
                 (A) (A) (A) (A) (A) (A) (A) (A) (A) (A) (A) (A)
                 (A) (A) (A) (A) (A) (A) (A) (A) (A) (A) (A) (A)
                 (A) (A) (A) (A) (A) (A) (A) (A) (A) (A) (A) (A)
                 (A) (A) (A) (A) (A) (A) (A) (A) (A) (A) (A) (A)
                 (A) (A) (A) (A) (A) (A) (A) (A) (A) (A) (A) (A)
                 (A) (A) (A) (A) (A) (A) (A) (A) (A) (A) (A) (A)
                 (A) (A) (A) (A) (A) (A) (A) (A) (A) (A) (A) (A)
                 (A) (A) (A) (A) (A) (A) (A)
       Virtual   (A) (A) (A) (A) (A) (A) (A) (A) (A) (A) (A) (A)
                 (A) (A) (A) (A) (A) (A) (A) (A) (A) (A) (A) (A)
                 (A) (A) (A) (A) (A) (A) (A) (A) (A) (A) (A) (A)
                 (A) (A) (A) (A) (A) (A) (A) (A) (A) (A) (A) (A)
                 (A) (A) (A) (A) (A) (A) (A) (A) (A) (A) (A) (A)
                 (A) (A) (A) (A) (A) (A) (A) (A) (A) (A) (A) (A)
                 (A) (A) (A) (A) (A) (A) (A) (A) (A) (A) (A) (A)
                 (A) (A) (A) (A) (A) (A) (A) (A) (A) (A) (A) (A)
                 (A) (A) (A) (A) (A) (A) (A) (A) (A) (A) (A) (A)
                 (A) (A) (A) (A) (A) (A) (A) (A) (A) (A) (A) (A)
                 (A) (A) (A) (A) (A) (A) (A) (A) (A) (A) (A) (A)
                 (A) (A) (A) (A) (A) (A) (A) (A) (A) (A) (A) (A)
                 (A) (A) (A) (A) (A) (A) (A) (A) (A) (A) (A) (A)
                 (A) (A) (A) (A) (A) (A) (A) (A) (A) (A) (A) (A)
                 (A) (A) (A) (A) (A) (A) (A) (A) (A) (A) (A) (A)
                 (A) (A) (A) (A) (A) (A) (A) (A) (A) (A) (A) (A)
                 (A) (A) (A) (A) (A) (A) (A) (A) (A) (A) (A) (A)
                 (A) (A) (A) (A) (A) (A) (A) (A) (A) (A) (A) (A)
                 (A) (A) (A) (A) (A) (A) (A) (A) (A) (A) (A) (A)
                 (A) (A) (A) (A) (A) (A) (A) (A) (A) (A) (A) (A)
                 (A) (A) (A) (A) (A) (A) (A) (A) (A) (A) (A) (A)
                 (A) (A) (A) (A) (A) (A) (A) (A) (A) (A) (A) (A)
                 (A) (A) (A) (A) (A) (A) (A) (A) (A) (A) (A) (A)
                 (A) (A) (A) (A) (A) (A) (A) (A) (A) (A) (A) (A)
                 (A) (A) (A) (A) (A) (A) (A) (A) (A) (A) (A) (A)
                 (A) (A) (A) (A) (A) (A) (A) (A) (A) (A) (A) (A)
                 (A) (A) (A) (A) (A) (A) (A) (A) (A) (A) (A) (A)
                 (A) (A) (A) (A) (A) (A) (A) (A) (A) (A) (A) (A)
                 (A) (A) (A) (A) (A) (A) (A) (A) (A) (A) (A) (A)
                 (A) (A) (A) (A) (A) (A) (A) (A) (A) (A) (A) (A)
                 (A) (A) (A) (A) (A) (A) (A) (A) (A) (A) (A) (A)
                 (A) (A) (A) (A) (A) (A) (A) (A) (A) (A) (A) (A)
                 (A) (A) (A) (A) (A) (A) (A) (A) (A) (A) (A) (A)
                 (A) (A) (A) (A) (A) (A) (A) (A) (A) (A) (A) (A)
                 (A) (A) (A) (A) (A) (A) (A) (A) (A) (A)
 The electronic state of the initial guess is 1-A.
 Requested convergence on RMS density matrix=1.00D-08 within 128 cycles.
 Requested convergence on MAX density matrix=1.00D-06.
 Requested convergence on             energy=1.00D-06.
 No special actions if energy rises.
 Integral accuracy reduced to 1.0D-05 until final iterations.
 Initial convergence to 1.0D-05 achieved.  Increase integral accuracy.
 SCF Done:  E(RB3LYP) =  -1387.29952852     A.U. after   16 cycles
             Convg  =    0.6108D-08             -V/T =  2.0091

 **********************************************************************

            Population analysis using the SCF density.

 **********************************************************************

 Orbital symmetries:
       Occupied  (A) (A) (A) (A) (A) (A) (A) (A) (A) (A) (A) (A)
                 (A) (A) (A) (A) (A) (A) (A) (A) (A) (A) (A) (A)
                 (A) (A) (A) (A) (A) (A) (A) (A) (A) (A) (A) (A)
                 (A) (A) (A) (A) (A) (A) (A) (A) (A) (A) (A) (A)
                 (A) (A) (A) (A) (A) (A) (A) (A) (A) (A) (A) (A)
                 (A) (A) (A) (A) (A) (A) (A) (A) (A) (A) (A) (A)
                 (A) (A) (A) (A) (A) (A) (A) (A) (A) (A) (A) (A)
                 (A) (A) (A) (A) (A) (A) (A) (A) (A) (A) (A) (A)
                 (A) (A) (A) (A) (A) (A) (A) (A) (A) (A) (A) (A)
                 (A) (A) (A) (A) (A) (A) (A)
       Virtual   (A) (A) (A) (A) (A) (A) (A) (A) (A) (A) (A) (A)
                 (A) (A) (A) (A) (A) (A) (A) (A) (A) (A) (A) (A)
                 (A) (A) (A) (A) (A) (A) (A) (A) (A) (A) (A) (A)
                 (A) (A) (A) (A) (A) (A) (A) (A) (A) (A) (A) (A)
                 (A) (A) (A) (A) (A) (A) (A) (A) (A) (A) (A) (A)
                 (A) (A) (A) (A) (A) (A) (A) (A) (A) (A) (A) (A)
                 (A) (A) (A) (A) (A) (A) (A) (A) (A) (A) (A) (A)
                 (A) (A) (A) (A) (A) (A) (A) (A) (A) (A) (A) (A)
                 (A) (A) (A) (A) (A) (A) (A) (A) (A) (A) (A) (A)
                 (A) (A) (A) (A) (A) (A) (A) (A) (A) (A) (A) (A)
                 (A) (A) (A) (A) (A) (A) (A) (A) (A) (A) (A) (A)
                 (A) (A) (A) (A) (A) (A) (A) (A) (A) (A) (A) (A)
                 (A) (A) (A) (A) (A) (A) (A) (A) (A) (A) (A) (A)
                 (A) (A) (A) (A) (A) (A) (A) (A) (A) (A) (A) (A)
                 (A) (A) (A) (A) (A) (A) (A) (A) (A) (A) (A) (A)
                 (A) (A) (A) (A) (A) (A) (A) (A) (A) (A) (A) (A)
                 (A) (A) (A) (A) (A) (A) (A) (A) (A) (A) (A) (A)
                 (A) (A) (A) (A) (A) (A) (A) (A) (A) (A) (A) (A)
                 (A) (A) (A) (A) (A) (A) (A) (A) (A) (A) (A) (A)
                 (A) (A) (A) (A) (A) (A) (A) (A) (A) (A) (A) (A)
                 (A) (A) (A) (A) (A) (A) (A) (A) (A) (A) (A) (A)
                 (A) (A) (A) (A) (A) (A) (A) (A) (A) (A) (A) (A)
                 (A) (A) (A) (A) (A) (A) (A) (A) (A) (A) (A) (A)
                 (A) (A) (A) (A) (A) (A) (A) (A) (A) (A) (A) (A)
                 (A) (A) (A) (A) (A) (A) (A) (A) (A) (A) (A) (A)
                 (A) (A) (A) (A) (A) (A) (A) (A) (A) (A) (A) (A)
                 (A) (A) (A) (A) (A) (A) (A) (A) (A) (A) (A) (A)
                 (A) (A) (A) (A) (A) (A) (A) (A) (A) (A) (A) (A)
                 (A) (A) (A) (A) (A) (A) (A) (A) (A) (A) (A) (A)
                 (A) (A) (A) (A) (A) (A) (A) (A) (A) (A) (A) (A)
                 (A) (A) (A) (A) (A) (A) (A) (A) (A) (A) (A) (A)
                 (A) (A) (A) (A) (A) (A) (A) (A) (A) (A) (A) (A)
                 (A) (A) (A) (A) (A) (A) (A) (A) (A) (A) (A) (A)
                 (A) (A) (A) (A) (A) (A) (A) (A) (A) (A) (A) (A)
                 (A) (A) (A) (A) (A) (A) (A) (A) (A) (A)
 The electronic state is 1-A.
 Alpha  occ. eigenvalues --  -19.19775 -19.16791 -19.15409 -19.13370 -19.12984
 Alpha  occ. eigenvalues --  -10.27914 -10.27022 -10.26876 -10.26199 -10.25942
 Alpha  occ. eigenvalues --  -10.25554 -10.25020 -10.21594 -10.20653 -10.20216
 Alpha  occ. eigenvalues --  -10.20146 -10.19587 -10.19466 -10.19463 -10.19167
 Alpha  occ. eigenvalues --  -10.19042 -10.18766 -10.18709 -10.18695 -10.18623
 Alpha  occ. eigenvalues --  -10.18281 -10.17930 -10.17816 -10.17260 -10.16586
 Alpha  occ. eigenvalues --  -10.15981  -1.08633  -1.06047  -1.03210  -1.02349
 Alpha  occ. eigenvalues --   -1.01882  -0.87406  -0.84017  -0.82666  -0.81706
 Alpha  occ. eigenvalues --   -0.80451  -0.79816  -0.76909  -0.74393  -0.73662
 Alpha  occ. eigenvalues --   -0.72184  -0.71826  -0.69639  -0.69209  -0.67887
 Alpha  occ. eigenvalues --   -0.65101  -0.64394  -0.63226  -0.61690  -0.60878
 Alpha  occ. eigenvalues --   -0.59532  -0.59337  -0.57427  -0.55649  -0.53977
 Alpha  occ. eigenvalues --   -0.53244  -0.52289  -0.51056  -0.50479  -0.49214
 Alpha  occ. eigenvalues --   -0.48093  -0.47547  -0.46702  -0.46260  -0.45854
 Alpha  occ. eigenvalues --   -0.45157  -0.44770  -0.44056  -0.43551  -0.43117
 Alpha  occ. eigenvalues --   -0.42932  -0.42229  -0.41950  -0.41707  -0.41550
 Alpha  occ. eigenvalues --   -0.40955  -0.40620  -0.40485  -0.40384  -0.39895
 Alpha  occ. eigenvalues --   -0.39312  -0.39033  -0.38576  -0.38218  -0.38052
 Alpha  occ. eigenvalues --   -0.37611  -0.37226  -0.37130  -0.36856  -0.36796
 Alpha  occ. eigenvalues --   -0.36471  -0.35442  -0.34788  -0.34446  -0.34186
 Alpha  occ. eigenvalues --   -0.33697  -0.33303  -0.33016  -0.32442  -0.32253
 Alpha  occ. eigenvalues --   -0.31609  -0.31263  -0.31124  -0.27928  -0.26654
 Alpha  occ. eigenvalues --   -0.26091  -0.25122  -0.24686  -0.23341  -0.23185
 Alpha virt. eigenvalues --   -0.05274  -0.02151   0.00388   0.02359   0.04083
 Alpha virt. eigenvalues --    0.07039   0.08523   0.08723   0.09133   0.10089
 Alpha virt. eigenvalues --    0.10796   0.10831   0.11401   0.11673   0.12211
 Alpha virt. eigenvalues --    0.12828   0.13209   0.13562   0.13758   0.14056
 Alpha virt. eigenvalues --    0.14101   0.14475   0.14798   0.15103   0.15354
 Alpha virt. eigenvalues --    0.16022   0.16552   0.16871   0.17242   0.17656
 Alpha virt. eigenvalues --    0.17960   0.18280   0.18496   0.18944   0.19086
 Alpha virt. eigenvalues --    0.19316   0.19508   0.19571   0.20025   0.20279
 Alpha virt. eigenvalues --    0.20706   0.21081   0.21576   0.22021   0.22341
 Alpha virt. eigenvalues --    0.23004   0.23962   0.24017   0.24205   0.24869
 Alpha virt. eigenvalues --    0.25140   0.25783   0.25812   0.26607   0.26927
 Alpha virt. eigenvalues --    0.27060   0.27990   0.28195   0.28453   0.29655
 Alpha virt. eigenvalues --    0.30905   0.32042   0.32483   0.32985   0.34292
 Alpha virt. eigenvalues --    0.34872   0.36103   0.37856   0.39486   0.40796
 Alpha virt. eigenvalues --    0.42397   0.45549   0.46790   0.47903   0.48475
 Alpha virt. eigenvalues --    0.49511   0.50045   0.51087   0.51507   0.51692
 Alpha virt. eigenvalues --    0.52355   0.52463   0.52773   0.53126   0.53927
 Alpha virt. eigenvalues --    0.54033   0.54498   0.55037   0.55668   0.56233
 Alpha virt. eigenvalues --    0.57337   0.57781   0.57830   0.59085   0.59152
 Alpha virt. eigenvalues --    0.59453   0.60408   0.61190   0.61680   0.62157
 Alpha virt. eigenvalues --    0.62439   0.62872   0.63175   0.63782   0.64690
 Alpha virt. eigenvalues --    0.65191   0.65563   0.66260   0.66756   0.67376
 Alpha virt. eigenvalues --    0.68207   0.68464   0.69242   0.69450   0.69815
 Alpha virt. eigenvalues --    0.70516   0.71368   0.71869   0.73165   0.74322
 Alpha virt. eigenvalues --    0.74588   0.75100   0.75446   0.75793   0.76238
 Alpha virt. eigenvalues --    0.76528   0.78558   0.78951   0.79670   0.80395
 Alpha virt. eigenvalues --    0.80601   0.80889   0.81351   0.81752   0.82522
 Alpha virt. eigenvalues --    0.83015   0.83374   0.83806   0.84500   0.85081
 Alpha virt. eigenvalues --    0.85537   0.85756   0.86488   0.86858   0.87129
 Alpha virt. eigenvalues --    0.87618   0.88183   0.88420   0.89075   0.89354
 Alpha virt. eigenvalues --    0.89361   0.89747   0.90202   0.90502   0.90667
 Alpha virt. eigenvalues --    0.91139   0.91747   0.91897   0.92281   0.92569
 Alpha virt. eigenvalues --    0.92959   0.93406   0.94037   0.94134   0.94835
 Alpha virt. eigenvalues --    0.95262   0.95577   0.96119   0.96376   0.96628
 Alpha virt. eigenvalues --    0.97003   0.98004   0.98363   0.99737   1.00495
 Alpha virt. eigenvalues --    1.01251   1.01822   1.02293   1.03177   1.03997
 Alpha virt. eigenvalues --    1.04249   1.05536   1.05870   1.06699   1.07624
 Alpha virt. eigenvalues --    1.09087   1.10031   1.11139   1.11237   1.11668
 Alpha virt. eigenvalues --    1.12704   1.14331   1.14355   1.16423   1.17679
 Alpha virt. eigenvalues --    1.17922   1.18719   1.19199   1.19221   1.22256
 Alpha virt. eigenvalues --    1.22931   1.23164   1.25205   1.25818   1.26121
 Alpha virt. eigenvalues --    1.27187   1.28109   1.30801   1.31176   1.32335
 Alpha virt. eigenvalues --    1.35618   1.35966   1.36787   1.38543   1.40255
 Alpha virt. eigenvalues --    1.41318   1.42070   1.43539   1.43986   1.46369
 Alpha virt. eigenvalues --    1.47927   1.48481   1.50081   1.51030   1.52657
 Alpha virt. eigenvalues --    1.53557   1.55445   1.55812   1.57287   1.58434
 Alpha virt. eigenvalues --    1.60889   1.61581   1.62685   1.62789   1.64039
 Alpha virt. eigenvalues --    1.65449   1.66291   1.67137   1.67395   1.70765
 Alpha virt. eigenvalues --    1.71339   1.72862   1.73249   1.73765   1.74141
 Alpha virt. eigenvalues --    1.75503   1.75636   1.76338   1.78063   1.78193
 Alpha virt. eigenvalues --    1.78688   1.79789   1.80825   1.81517   1.82221
 Alpha virt. eigenvalues --    1.83117   1.83743   1.84123   1.84706   1.85892
 Alpha virt. eigenvalues --    1.86095   1.87194   1.87520   1.87708   1.88875
 Alpha virt. eigenvalues --    1.89384   1.90131   1.90722   1.90850   1.91362
 Alpha virt. eigenvalues --    1.92019   1.92468   1.93430   1.93541   1.94476
 Alpha virt. eigenvalues --    1.95885   1.96182   1.96503   1.97769   1.98305
 Alpha virt. eigenvalues --    1.98828   1.99834   2.00509   2.01374   2.01771
 Alpha virt. eigenvalues --    2.03390   2.03475   2.04049   2.05651   2.06363
 Alpha virt. eigenvalues --    2.06809   2.07157   2.07436   2.08258   2.09470
 Alpha virt. eigenvalues --    2.10799   2.11476   2.11933   2.13211   2.13879
 Alpha virt. eigenvalues --    2.14425   2.16057   2.16658   2.16985   2.17977
 Alpha virt. eigenvalues --    2.18877   2.20551   2.21377   2.22514   2.23303
 Alpha virt. eigenvalues --    2.24365   2.24588   2.25255   2.25796   2.27499
 Alpha virt. eigenvalues --    2.28279   2.28860   2.30623   2.31183   2.32060
 Alpha virt. eigenvalues --    2.32847   2.33276   2.34493   2.34671   2.35265
 Alpha virt. eigenvalues --    2.35558   2.37026   2.37788   2.38728   2.39357
 Alpha virt. eigenvalues --    2.39522   2.40995   2.42201   2.42956   2.44209
 Alpha virt. eigenvalues --    2.45136   2.45770   2.47254   2.48015   2.49055
 Alpha virt. eigenvalues --    2.50387   2.50637   2.50855   2.51912   2.54649
 Alpha virt. eigenvalues --    2.55723   2.57106   2.57842   2.59204   2.60403
 Alpha virt. eigenvalues --    2.60957   2.62025   2.63569   2.64136   2.66495
 Alpha virt. eigenvalues --    2.67035   2.67977   2.69049   2.70090   2.71258
 Alpha virt. eigenvalues --    2.71392   2.72571   2.74427   2.76727   2.78871
 Alpha virt. eigenvalues --    2.79878   2.81693   2.82735   2.85338   2.86823
 Alpha virt. eigenvalues --    2.87008   2.89701   2.92820   2.94822   2.95638
 Alpha virt. eigenvalues --    2.97511   2.99565   3.01009   3.02126   3.03554
 Alpha virt. eigenvalues --    3.05737   3.07180   3.13058   3.18715   3.21559
 Alpha virt. eigenvalues --    3.22384   3.29234   4.01600   4.07014   4.10940
 Alpha virt. eigenvalues --    4.13628   4.15429   4.17040   4.20165   4.21048
 Alpha virt. eigenvalues --    4.22839   4.24687   4.25451   4.27991   4.29471
 Alpha virt. eigenvalues --    4.31697   4.34985   4.38016   4.39038   4.43415
 Alpha virt. eigenvalues --    4.46579   4.49970   4.53385   4.55153   4.59757
 Alpha virt. eigenvalues --    4.62653   4.64743   4.71252   4.74014   4.81651
 Alpha virt. eigenvalues --    4.91088   5.01021   5.19081
          Condensed to atoms (all electrons):
 Mulliken atomic charges:
              1
     1  C   -0.188743
     2  C    0.190488
     3  C   -0.186121
     4  C    0.321943
     5  C   -0.047118
     6  C   -0.332744
     7  C    0.211489
     8  C    0.399575
     9  C   -0.083517
    10  C    0.434442
    11  C    0.420547
    12  O   -0.457501
    13  C   -0.144793
    14  C   -0.269427
    15  C   -0.460408
    16  O   -0.503648
    17  C   -0.161277
    18  C    0.312470
    19  O   -0.544217
    20  C   -0.320525
    21  O   -0.661789
    22  C   -0.327499
    23  C    0.105061
    24  O   -0.585083
    25  C    0.178295
    26  C   -0.504636
    27  C   -0.392241
    28  C   -0.462919
    29  C   -0.463626
    30  H    0.143083
    31  H    0.163103
    32  C   -0.517440
    33  H    0.124544
    34  H    0.181784
    35  H    0.151241
    36  H    0.161675
    37  H    0.131906
    38  H    0.149010
    39  H    0.157904
    40  H    0.140239
    41  H    0.163730
    42  H    0.170980
    43  H    0.147882
    44  H    0.411407
    45  H    0.168809
    46  H    0.172340
    47  H    0.136904
    48  H    0.154731
    49  H    0.165568
    50  H    0.153635
    51  H    0.149858
    52  H    0.142706
    53  H    0.148547
    54  H    0.140027
    55  H    0.185439
    56  H    0.157624
    57  H    0.150308
    58  H    0.161713
    59  H    0.158848
    60  H    0.161042
    61  H    0.147799
    62  C   -0.456110
    63  H    0.135861
    64  H    0.142331
    65  H    0.164494
 Sum of Mulliken atomic charges =   0.00000
 Mulliken charges with hydrogens summed into heavy atoms:
              1
     1  C   -0.064199
     2  C    0.190488
     3  C   -0.023018
     4  C    0.321943
     5  C   -0.047118
     6  C    0.000280
     7  C    0.211489
     8  C    0.399575
     9  C   -0.083517
    10  C    0.434442
    11  C    0.420547
    12  O   -0.457501
    13  C    0.016882
    14  C    0.011490
    15  C    0.001464
    16  O   -0.503648
    17  C   -0.018194
    18  C    0.312470
    19  O   -0.544217
    20  C   -0.001663
    21  O   -0.250382
    22  C    0.013650
    23  C    0.241965
    24  O   -0.585083
    25  C    0.178295
    26  C   -0.030701
    27  C   -0.099677
    28  C    0.011094
    29  C    0.006018
    32  C   -0.049751
    62  C   -0.013423
 Sum of Mulliken charges with hydrogens summed into heavy atoms =   0.00000
 Electronic spatial extent (au):  <R**2>=          10766.3273
 Charge=              0.0000 electrons
 Dipole moment (field-independent basis, Debye):
    X=              3.6315    Y=              2.0759    Z=              3.8204  Tot=              5.6651
 Quadrupole moment (field-independent basis, Debye-Ang):
   XX=           -180.6932   YY=           -178.1612   ZZ=           -189.2972
   XY=              0.0611   XZ=             -8.6768   YZ=              0.3517
 Traceless Quadrupole moment (field-independent basis, Debye-Ang):
   XX=              2.0240   YY=              4.5560   ZZ=             -6.5800
   XY=              0.0611   XZ=             -8.6768   YZ=              0.3517
 Octapole moment (field-independent basis, Debye-Ang**2):
  XXX=             14.7885  YYY=             18.5917  ZZZ=             31.2801  XYY=              0.9763
  XXY=            -30.6245  XXZ=             27.7049  XZZ=             33.1614  YZZ=             22.7212
  YYZ=             18.0359  XYZ=            -12.8245
 Hexadecapole moment (field-independent basis, Debye-Ang**3):
 XXXX=          -6929.1095 YYYY=          -4109.0216 ZZZZ=          -3247.1260 XXXY=             23.4779
 XXXZ=             20.1476 YYYX=            -17.8320 YYYZ=            -17.6945 ZZZX=            -49.0517
 ZZZY=            -13.0348 XXYY=          -1821.0104 XXZZ=          -1723.2138 YYZZ=          -1223.4996
 XXYZ=              7.5587 YYXZ=             23.9279 ZZXY=            -18.9108
 N-N= 3.561639955033D+03 E-N=-1.034956489140D+04  KE= 1.374775966334D+03
 Calling FoFJK, ICntrl=      2127 FMM=T ISym2X=0 I1Cent= 0 IOpClX= 0 NMat=1 NMatS=1 NMatT=0.
 ***** Axes restored to original set *****
 -------------------------------------------------------------------
 Center     Atomic                   Forces (Hartrees/Bohr)
 Number     Number              X              Y              Z
 -------------------------------------------------------------------
      1        6           0.009721135   -0.000451883    0.000180171
      2        6          -0.012985984   -0.005064582    0.001958154
      3        6          -0.000851624   -0.008135956   -0.000673021
      4        6           0.003416458   -0.004412502    0.011118486
      5        6          -0.011364108   -0.002025068    0.001211228
      6        6          -0.004513777   -0.010991151   -0.000760936
      7        6           0.011991467    0.018741849    0.008658634
      8        6           0.008631624   -0.011375865   -0.014097261
      9        6           0.000491713    0.005479421    0.010006629
     10        6          -0.010965500    0.001374513   -0.020639316
     11        6          -0.015686585   -0.027054284   -0.012458138
     12        8           0.002872400    0.024439491   -0.000182858
     13        6           0.005687320    0.002692442   -0.004848623
     14        6          -0.004916327    0.001529387    0.001959949
     15        6           0.005783362   -0.007291417   -0.007543378
     16        8           0.011495879   -0.003637182    0.010659658
     17        6           0.007941289   -0.010912300   -0.005570249
     18        6           0.032546464    0.007304134   -0.000039227
     19        8          -0.026764791    0.003067903    0.025140908
     20        6           0.011354678   -0.004970841    0.000138445
     21        8          -0.005979840    0.006958009   -0.002444060
     22        6          -0.007049606    0.013536557    0.001940845
     23        6          -0.005268184    0.008313838    0.000786261
     24        8           0.001823755   -0.006116231   -0.009548483
     25        6          -0.002961087    0.014670514    0.001624925
     26        6           0.001356495    0.001767683    0.000384765
     27        6           0.001012105   -0.009987456   -0.001609708
     28        6          -0.002907092    0.007873249   -0.004780248
     29        6          -0.003615465   -0.006184825   -0.009057227
     30        1          -0.001676098    0.001093473   -0.001753909
     31        1          -0.003193081    0.006125078   -0.000040301
     32        6          -0.001110888    0.000909951   -0.000967485
     33        1           0.001491374   -0.000848902   -0.000101484
     34        1           0.000579842    0.007412767   -0.001463417
     35        1          -0.000564480    0.005634460    0.001763992
     36        1          -0.000515178   -0.002373843    0.000997921
     37        1           0.002434866   -0.003411601   -0.001680342
     38        1           0.002331172   -0.001857034    0.000126411
     39        1          -0.000344272    0.000932477    0.001038848
     40        1          -0.000754160    0.001203183    0.000263043
     41        1          -0.001001121    0.000233329    0.001114689
     42        1           0.000053734    0.002869543   -0.000153233
     43        1          -0.001299139   -0.001964639   -0.001470323
     44        1          -0.002029016   -0.003695914   -0.002587685
     45        1           0.001437301   -0.002944855   -0.001398196
     46        1           0.002001634    0.000254667    0.003498514
     47        1          -0.001899350   -0.001285534    0.002953227
     48        1           0.002569980   -0.002672975    0.001606062
     49        1           0.001025895   -0.003393946    0.002214658
     50        1          -0.001401112   -0.000121827   -0.001697193
     51        1          -0.000240910   -0.000284279   -0.001387129
     52        1          -0.000012576   -0.000636629    0.001004790
     53        1           0.002165921   -0.003841048    0.000314494
     54        1           0.000433730   -0.000801996    0.000137537
     55        1          -0.001248358   -0.002742728    0.005674908
     56        1           0.000710555    0.002766664    0.001457065
     57        1          -0.000833202    0.001230824    0.000587472
     58        1          -0.000288180   -0.000031927    0.003755660
     59        1          -0.001103126    0.001867555   -0.000646527
     60        1           0.004262471   -0.001759505    0.000213104
     61        1           0.004143874   -0.001186711    0.000199122
     62        6          -0.000885697    0.005353370    0.003580653
     63        1          -0.001348589    0.001390893    0.000370195
     64        1          -0.001554121   -0.000452427    0.000139294
     65        1          -0.002635868   -0.002107360    0.000819241
 -------------------------------------------------------------------
 Cartesian Forces:  Max     0.032546464 RMS     0.006849619

 GradGradGradGradGradGradGradGradGradGradGradGradGradGradGradGradGradGrad
 Berny optimization.
 Internal  Forces:  Max     0.024352011 RMS     0.003556215
 Search for a local minimum.
 Step number   1 out of a maximum of  390
 All quantities printed in internal units (Hartrees-Bohrs-Radians)
 Mixed Optimization -- RFO/linear search
 Second derivative matrix not updated -- first step.
 ITU=  0
     Eigenvalues ---    0.00263   0.00277   0.00324   0.00334   0.00335
     Eigenvalues ---    0.00436   0.00466   0.00553   0.00596   0.00608
     Eigenvalues ---    0.00609   0.00661   0.00688   0.00688   0.00734
     Eigenvalues ---    0.01029   0.01084   0.01245   0.01251   0.01412
     Eigenvalues ---    0.01457   0.01629   0.01713   0.01819   0.01923
     Eigenvalues ---    0.02503   0.02828   0.02828   0.03026   0.03115
     Eigenvalues ---    0.03393   0.03446   0.03596   0.03751   0.04033
     Eigenvalues ---    0.04107   0.04307   0.04385   0.04585   0.04638
     Eigenvalues ---    0.04733   0.04814   0.04924   0.05098   0.05245
     Eigenvalues ---    0.05307   0.05380   0.05421   0.05431   0.05459
     Eigenvalues ---    0.05497   0.05498   0.05505   0.05550   0.05623
     Eigenvalues ---    0.05709   0.05857   0.05932   0.06279   0.06644
     Eigenvalues ---    0.06696   0.06862   0.07090   0.07111   0.07158
     Eigenvalues ---    0.07248   0.07250   0.07366   0.07675   0.08384
     Eigenvalues ---    0.08516   0.08824   0.09027   0.09176   0.09822
     Eigenvalues ---    0.10095   0.10638   0.10910   0.11627   0.12346
     Eigenvalues ---    0.13164   0.14705   0.15217   0.15973   0.16000
     Eigenvalues ---    0.16000   0.16000   0.16000   0.16000   0.16000
     Eigenvalues ---    0.16000   0.16000   0.16000   0.16000   0.16000
     Eigenvalues ---    0.16000   0.16000   0.16000   0.16000   0.16000
     Eigenvalues ---    0.16000   0.16000   0.16000   0.16000   0.16000
     Eigenvalues ---    0.16422   0.16642   0.17258   0.18324   0.19009
     Eigenvalues ---    0.19736   0.21573   0.21904   0.22767   0.23564
     Eigenvalues ---    0.24493   0.24881   0.24933   0.24980   0.24986
     Eigenvalues ---    0.24993   0.25000   0.25000   0.25959   0.27276
     Eigenvalues ---    0.27429   0.27730   0.27852   0.28055   0.28320
     Eigenvalues ---    0.28689   0.28693   0.28792   0.29112   0.29183
     Eigenvalues ---    0.29183   0.30107   0.30485   0.30576   0.31159
     Eigenvalues ---    0.31561   0.31769   0.31824   0.33126   0.33668
     Eigenvalues ---    0.33814   0.33920   0.33982   0.33985   0.34010
     Eigenvalues ---    0.34021   0.34041   0.34064   0.34070   0.34114
     Eigenvalues ---    0.34136   0.34146   0.34196   0.34200   0.34206
     Eigenvalues ---    0.34211   0.34241   0.34242   0.34248   0.34259
     Eigenvalues ---    0.34265   0.34282   0.34283   0.34289   0.34307
     Eigenvalues ---    0.34322   0.34338   0.34455   0.34559   0.34714
     Eigenvalues ---    0.34959   0.35209   0.35246   0.35450   0.36415
     Eigenvalues ---    0.37322   0.42800   0.43597   0.51588   0.53360
     Eigenvalues ---    0.54597   0.56293   0.88974   0.89574
 RFO step:  Lambda=-2.22702581D-02 EMin= 2.62719090D-03
 Linear search not attempted -- first point.
 Iteration  1 RMS(Cart)=  0.05080996 RMS(Int)=  0.00069134
 Iteration  2 RMS(Cart)=  0.00111157 RMS(Int)=  0.00024976
 Iteration  3 RMS(Cart)=  0.00000071 RMS(Int)=  0.00024976
 Variable       Old X    -DE/DX   Delta X   Delta X   Delta X     New X
                                 (Linear)    (Quad)   (Total)
    R1        2.53488  -0.00281   0.00000  -0.00581  -0.00582   2.52906
    R2        2.82344   0.00850   0.00000   0.02496   0.02490   2.84835
    R3        2.05742  -0.00001   0.00000  -0.00004  -0.00004   2.05738
    R4        2.85371   0.00375   0.00000   0.00822   0.00826   2.86197
    R5        2.84568   0.00324   0.00000   0.00952   0.00952   2.85520
    R6        2.94012   0.00492   0.00000   0.01205   0.01196   2.95208
    R7        2.90824   0.01100   0.00000   0.03772   0.03772   2.94596
    R8        2.07894  -0.00078   0.00000  -0.00217  -0.00217   2.07677
    R9        2.90414   0.00900   0.00000   0.02920   0.02903   2.93317
   R10        2.91303   0.00726   0.00000   0.02453   0.02464   2.93768
   R11        2.76342  -0.00433   0.00000  -0.01015  -0.01016   2.75326
   R12        2.91439  -0.00004   0.00000   0.00267   0.00259   2.91698
   R13        2.90333   0.00649   0.00000   0.01479   0.01475   2.91808
   R14        2.89488   0.01250   0.00000   0.04052   0.04053   2.93541
   R15        2.07355  -0.00138   0.00000  -0.00382  -0.00382   2.06973
   R16        2.07261   0.00285   0.00000   0.00786   0.00786   2.08047
   R17        2.81526   0.00922   0.00000   0.01978   0.01937   2.83464
   R18        2.85999   0.01599   0.00000   0.05605   0.05553   2.91552
   R19        2.67917   0.00305   0.00000   0.00677   0.00677   2.68594
   R20        2.52536   0.01275   0.00000   0.02203   0.02204   2.54740
   R21        2.63053  -0.01861   0.00000  -0.04416  -0.04395   2.58657
   R22        2.79878  -0.00141   0.00000  -0.00781  -0.00767   2.79111
   R23        2.79697   0.01916   0.00000   0.05209   0.05209   2.84906
   R24        2.33130  -0.01406   0.00000  -0.01532  -0.01532   2.31598
   R25        2.33410  -0.02435   0.00000  -0.02670  -0.02670   2.30739
   R26        2.89770   0.00014   0.00000   0.00046   0.00046   2.89815
   R27        2.90648   0.00128   0.00000   0.00413   0.00413   2.91061
   R28        2.89623   0.00714   0.00000   0.02272   0.02272   2.91896
   R29        2.07645   0.00043   0.00000   0.00118   0.00118   2.07763
   R30        2.07465   0.00016   0.00000   0.00044   0.00044   2.07508
   R31        2.06815   0.00142   0.00000   0.00388   0.00388   2.07203
   R32        2.87750   0.00884   0.00000   0.02734   0.02734   2.90484
   R33        2.06845   0.00029   0.00000   0.00080   0.00080   2.06926
   R34        2.06975   0.00045   0.00000   0.00123   0.00123   2.07097
   R35        2.06993  -0.00046   0.00000  -0.00127  -0.00127   2.06867
   R36        2.91521  -0.00070   0.00000   0.00950   0.00976   2.92498
   R37        2.90493   0.00443   0.00000   0.01517   0.01525   2.92017
   R38        2.07138  -0.00167   0.00000  -0.00460  -0.00460   2.06678
[...]
     57          1           0        1.496861    4.117612   -2.411391
     58          1           0        2.030039    3.654453   -0.781175
     59          1           0       -1.485961    3.645310    3.698849
     60          1           0       -0.483407    4.068479    2.302791
     61          1           0       -2.236803    4.195177    2.188515
     62          6           0        2.741196   -3.680078    0.136683
     63          1           0        2.330036   -4.393187   -0.587264
     64          1           0        3.502801   -4.206179    0.725624
     65          1           0        1.939950   -3.393213    0.825528
 ---------------------------------------------------------------------
 Rotational constants (GHZ):      0.1914828      0.1367761      0.1267595

 **********************************************************************

            Population analysis using the SCF density.

 **********************************************************************

 Orbital symmetries:
       Occupied  (A) (A) (A) (A) (A) (A) (A) (A) (A) (A) (A) (A)
                 (A) (A) (A) (A) (A) (A) (A) (A) (A) (A) (A) (A)
                 (A) (A) (A) (A) (A) (A) (A) (A) (A) (A) (A) (A)
                 (A) (A) (A) (A) (A) (A) (A) (A) (A) (A) (A) (A)
                 (A) (A) (A) (A) (A) (A) (A) (A) (A) (A) (A) (A)
                 (A) (A) (A) (A) (A) (A) (A) (A) (A) (A) (A) (A)
                 (A) (A) (A) (A) (A) (A) (A) (A) (A) (A) (A) (A)
                 (A) (A) (A) (A) (A) (A) (A) (A) (A) (A) (A) (A)
                 (A) (A) (A) (A) (A) (A) (A) (A) (A) (A) (A) (A)
                 (A) (A) (A) (A) (A) (A) (A)
       Virtual   (A) (A) (A) (A) (A) (A) (A) (A) (A) (A) (A) (A)
                 (A) (A) (A) (A) (A) (A) (A) (A) (A) (A) (A) (A)
                 (A) (A) (A) (A) (A) (A) (A) (A) (A) (A) (A) (A)
                 (A) (A) (A) (A) (A) (A) (A) (A) (A) (A) (A) (A)
                 (A) (A) (A) (A) (A) (A) (A) (A) (A) (A) (A) (A)
                 (A) (A) (A) (A) (A) (A) (A) (A) (A) (A) (A) (A)
                 (A) (A) (A) (A) (A) (A) (A) (A) (A) (A) (A) (A)
                 (A) (A) (A) (A) (A) (A) (A) (A) (A) (A) (A) (A)
                 (A) (A) (A) (A) (A) (A) (A) (A) (A) (A) (A) (A)
                 (A) (A) (A) (A) (A) (A) (A) (A) (A) (A) (A) (A)
                 (A) (A) (A) (A) (A) (A) (A) (A) (A) (A) (A) (A)
                 (A) (A) (A) (A) (A) (A) (A) (A) (A) (A) (A) (A)
                 (A) (A) (A) (A) (A) (A) (A) (A) (A) (A) (A) (A)
                 (A) (A) (A) (A) (A) (A) (A) (A) (A) (A) (A) (A)
                 (A) (A) (A) (A) (A) (A) (A) (A) (A) (A) (A) (A)
                 (A) (A) (A) (A) (A) (A) (A) (A) (A) (A) (A) (A)
                 (A) (A) (A) (A) (A) (A) (A) (A) (A) (A) (A) (A)
                 (A) (A) (A) (A) (A) (A) (A) (A) (A) (A) (A) (A)
                 (A) (A) (A) (A) (A) (A) (A) (A) (A) (A) (A) (A)
                 (A) (A) (A) (A) (A) (A) (A) (A) (A) (A) (A) (A)
                 (A) (A) (A) (A) (A) (A) (A) (A) (A) (A) (A) (A)
                 (A) (A) (A) (A) (A) (A) (A) (A) (A) (A) (A) (A)
                 (A) (A) (A) (A) (A) (A) (A) (A) (A) (A) (A) (A)
                 (A) (A) (A) (A) (A) (A) (A) (A) (A) (A) (A) (A)
                 (A) (A) (A) (A) (A) (A) (A) (A) (A) (A) (A) (A)
                 (A) (A) (A) (A) (A) (A) (A) (A) (A) (A) (A) (A)
                 (A) (A) (A) (A) (A) (A) (A) (A) (A) (A) (A) (A)
                 (A) (A) (A) (A) (A) (A) (A) (A) (A) (A) (A) (A)
                 (A) (A) (A) (A) (A) (A) (A) (A) (A) (A) (A) (A)
                 (A) (A) (A) (A) (A) (A) (A) (A) (A) (A) (A) (A)
                 (A) (A) (A) (A) (A) (A) (A) (A) (A) (A) (A) (A)
                 (A) (A) (A) (A) (A) (A) (A) (A) (A) (A) (A) (A)
                 (A) (A) (A) (A) (A) (A) (A) (A) (A) (A) (A) (A)
                 (A) (A) (A) (A) (A) (A) (A) (A) (A) (A) (A) (A)
                 (A) (A) (A) (A) (A) (A) (A) (A) (A) (A)
 The electronic state is 1-A.
 Alpha  occ. eigenvalues --  -19.19669 -19.16668 -19.15800 -19.12676 -19.12581
 Alpha  occ. eigenvalues --  -10.27077 -10.26997 -10.26822 -10.26669 -10.25787
 Alpha  occ. eigenvalues --  -10.25738 -10.25144 -10.21273 -10.20798 -10.20643
 Alpha  occ. eigenvalues --  -10.20301 -10.19869 -10.19482 -10.19249 -10.19234
 Alpha  occ. eigenvalues --  -10.19164 -10.18906 -10.18894 -10.18708 -10.18381
 Alpha  occ. eigenvalues --  -10.18340 -10.18324 -10.17994 -10.17223 -10.16845
 Alpha  occ. eigenvalues --  -10.15981  -1.09039  -1.05853  -1.03225  -1.02415
 Alpha  occ. eigenvalues --   -1.02188  -0.86642  -0.83677  -0.82398  -0.81358
 Alpha  occ. eigenvalues --   -0.80201  -0.79498  -0.76609  -0.74225  -0.73116
 Alpha  occ. eigenvalues --   -0.71796  -0.71485  -0.70093  -0.69487  -0.67799
 Alpha  occ. eigenvalues --   -0.64990  -0.63958  -0.63206  -0.61501  -0.60546
 Alpha  occ. eigenvalues --   -0.59338  -0.59092  -0.56925  -0.55497  -0.53654
 Alpha  occ. eigenvalues --   -0.53002  -0.52220  -0.50779  -0.50338  -0.49222
 Alpha  occ. eigenvalues --   -0.48034  -0.46979  -0.46448  -0.46243  -0.45769
 Alpha  occ. eigenvalues --   -0.45242  -0.44612  -0.43925  -0.43396  -0.43193
 Alpha  occ. eigenvalues --   -0.42656  -0.41975  -0.41859  -0.41525  -0.41307
 Alpha  occ. eigenvalues --   -0.40734  -0.40624  -0.40596  -0.40180  -0.40105
 Alpha  occ. eigenvalues --   -0.39323  -0.39015  -0.38480  -0.38204  -0.38006
 Alpha  occ. eigenvalues --   -0.37658  -0.37536  -0.37407  -0.37057  -0.36790
 Alpha  occ. eigenvalues --   -0.36443  -0.35431  -0.35080  -0.34500  -0.34346
 Alpha  occ. eigenvalues --   -0.33611  -0.33502  -0.32991  -0.32683  -0.31918
 Alpha  occ. eigenvalues --   -0.31437  -0.31245  -0.31024  -0.28106  -0.26683
 Alpha  occ. eigenvalues --   -0.26333  -0.24748  -0.24068  -0.23336  -0.22614
 Alpha virt. eigenvalues --   -0.04512  -0.01340   0.00328   0.02362   0.04991
 Alpha virt. eigenvalues --    0.07273   0.08444   0.08931   0.09016   0.10171
 Alpha virt. eigenvalues --    0.10785   0.10938   0.11081   0.12071   0.12332
 Alpha virt. eigenvalues --    0.12951   0.13222   0.13526   0.14013   0.14118
 Alpha virt. eigenvalues --    0.14334   0.14577   0.14840   0.15280   0.15833
 Alpha virt. eigenvalues --    0.15967   0.16695   0.16949   0.17131   0.17333
 Alpha virt. eigenvalues --    0.17690   0.17950   0.18236   0.18748   0.18782
 Alpha virt. eigenvalues --    0.18935   0.19176   0.19580   0.19954   0.20249
 Alpha virt. eigenvalues --    0.20566   0.20833   0.21537   0.21601   0.22266
 Alpha virt. eigenvalues --    0.22721   0.23220   0.23710   0.23792   0.24356
 Alpha virt. eigenvalues --    0.24435   0.25485   0.26010   0.26388   0.26828
 Alpha virt. eigenvalues --    0.27313   0.27663   0.27969   0.28891   0.29623
 Alpha virt. eigenvalues --    0.30208   0.31828   0.32402   0.32609   0.33817
 Alpha virt. eigenvalues --    0.34768   0.36317   0.37598   0.39428   0.39783
 Alpha virt. eigenvalues --    0.42036   0.45689   0.46923   0.48149   0.48595
 Alpha virt. eigenvalues --    0.49346   0.49890   0.50637   0.51051   0.51515
 Alpha virt. eigenvalues --    0.51745   0.52309   0.52694   0.53161   0.53258
 Alpha virt. eigenvalues --    0.53629   0.54041   0.54502   0.55651   0.56027
 Alpha virt. eigenvalues --    0.57036   0.57422   0.58042   0.58600   0.58838
 Alpha virt. eigenvalues --    0.59478   0.60436   0.60889   0.61428   0.61952
 Alpha virt. eigenvalues --    0.62730   0.62809   0.63080   0.63331   0.64506
 Alpha virt. eigenvalues --    0.64896   0.65836   0.66083   0.67135   0.67356
 Alpha virt. eigenvalues --    0.68188   0.68675   0.69063   0.69565   0.69919
 Alpha virt. eigenvalues --    0.70259   0.70894   0.72261   0.72326   0.73550
 Alpha virt. eigenvalues --    0.74726   0.75061   0.75319   0.75824   0.76136
 Alpha virt. eigenvalues --    0.76736   0.77533   0.78272   0.79360   0.80027
 Alpha virt. eigenvalues --    0.80222   0.80362   0.81470   0.82024   0.82869
 Alpha virt. eigenvalues --    0.82965   0.83377   0.84012   0.84454   0.84757
 Alpha virt. eigenvalues --    0.85453   0.85964   0.86445   0.86573   0.87309
 Alpha virt. eigenvalues --    0.87477   0.88017   0.88652   0.88745   0.88982
 Alpha virt. eigenvalues --    0.89376   0.89572   0.89860   0.90581   0.90913
 Alpha virt. eigenvalues --    0.91274   0.91342   0.92154   0.92679   0.92892
 Alpha virt. eigenvalues --    0.93066   0.93703   0.93869   0.94302   0.94853
 Alpha virt. eigenvalues --    0.95015   0.95252   0.95656   0.96241   0.96818
 Alpha virt. eigenvalues --    0.97293   0.97690   0.98268   0.99528   1.00021
 Alpha virt. eigenvalues --    1.00824   1.00984   1.01475   1.02865   1.03280
 Alpha virt. eigenvalues --    1.03633   1.05381   1.06155   1.07248   1.08504
 Alpha virt. eigenvalues --    1.08928   1.09751   1.10568   1.10965   1.12179
 Alpha virt. eigenvalues --    1.13407   1.14172   1.14796   1.15925   1.16379
 Alpha virt. eigenvalues --    1.17279   1.18644   1.19255   1.19695   1.22076
 Alpha virt. eigenvalues --    1.22482   1.24444   1.25397   1.26297   1.26793
 Alpha virt. eigenvalues --    1.28582   1.28988   1.31139   1.32075   1.32508
 Alpha virt. eigenvalues --    1.35006   1.36253   1.37496   1.38457   1.40177
 Alpha virt. eigenvalues --    1.41676   1.42329   1.43071   1.44497   1.45884
 Alpha virt. eigenvalues --    1.46941   1.48630   1.49621   1.50266   1.52726
 Alpha virt. eigenvalues --    1.53041   1.54950   1.55909   1.56510   1.59325
 Alpha virt. eigenvalues --    1.59643   1.61357   1.62401   1.62864   1.64067
 Alpha virt. eigenvalues --    1.65642   1.65898   1.67189   1.68274   1.69897
 Alpha virt. eigenvalues --    1.71165   1.72157   1.72836   1.73081   1.73345
 Alpha virt. eigenvalues --    1.73899   1.75254   1.75716   1.76904   1.77804
 Alpha virt. eigenvalues --    1.78811   1.79477   1.79636   1.80394   1.81815
 Alpha virt. eigenvalues --    1.82810   1.83406   1.83843   1.85231   1.85803
 Alpha virt. eigenvalues --    1.86391   1.86592   1.87052   1.87715   1.88602
 Alpha virt. eigenvalues --    1.88776   1.89783   1.90332   1.90867   1.91477
 Alpha virt. eigenvalues --    1.91658   1.92619   1.93437   1.93697   1.94240
 Alpha virt. eigenvalues --    1.95545   1.95857   1.96911   1.97550   1.97903
 Alpha virt. eigenvalues --    1.98628   1.99373   1.99729   2.00196   2.00871
 Alpha virt. eigenvalues --    2.02289   2.02616   2.04019   2.04554   2.05358
 Alpha virt. eigenvalues --    2.06373   2.06688   2.07705   2.07978   2.09444
 Alpha virt. eigenvalues --    2.09801   2.10640   2.11234   2.12039   2.13202
 Alpha virt. eigenvalues --    2.14395   2.14972   2.16066   2.16756   2.17327
 Alpha virt. eigenvalues --    2.17940   2.19242   2.19746   2.21386   2.22567
 Alpha virt. eigenvalues --    2.23971   2.24317   2.24732   2.26208   2.26835
 Alpha virt. eigenvalues --    2.27763   2.28952   2.29854   2.30229   2.31370
 Alpha virt. eigenvalues --    2.32638   2.33205   2.34207   2.34429   2.34594
 Alpha virt. eigenvalues --    2.35260   2.35736   2.37306   2.37492   2.38889
 Alpha virt. eigenvalues --    2.39444   2.40461   2.41158   2.42121   2.43662
 Alpha virt. eigenvalues --    2.44455   2.46122   2.46499   2.47825   2.48623
 Alpha virt. eigenvalues --    2.49804   2.50089   2.51364   2.52873   2.53581
 Alpha virt. eigenvalues --    2.55052   2.56175   2.57285   2.58946   2.59130
 Alpha virt. eigenvalues --    2.60661   2.62324   2.63461   2.63707   2.65202
 Alpha virt. eigenvalues --    2.66857   2.67299   2.68520   2.69763   2.69819
 Alpha virt. eigenvalues --    2.71440   2.72369   2.73126   2.76412   2.77417
 Alpha virt. eigenvalues --    2.77627   2.79650   2.82042   2.83399   2.85370
 Alpha virt. eigenvalues --    2.86598   2.88955   2.91679   2.94396   2.96191
 Alpha virt. eigenvalues --    2.98927   3.00724   3.01047   3.01518   3.02977
 Alpha virt. eigenvalues --    3.05544   3.06625   3.12345   3.18143   3.20999
 Alpha virt. eigenvalues --    3.24016   3.28152   4.03571   4.06060   4.11147
 Alpha virt. eigenvalues --    4.12720   4.13643   4.15882   4.19196   4.19848
 Alpha virt. eigenvalues --    4.22103   4.23372   4.25331   4.27685   4.29800
 Alpha virt. eigenvalues --    4.31342   4.34136   4.38094   4.38174   4.44258
 Alpha virt. eigenvalues --    4.46265   4.50532   4.53405   4.55608   4.59678
 Alpha virt. eigenvalues --    4.62034   4.66200   4.69219   4.74184   4.81158
 Alpha virt. eigenvalues --    4.88984   5.02433   5.16906
          Condensed to atoms (all electrons):
 Mulliken atomic charges:
              1
     1  C   -0.183770
     2  C    0.194093
     3  C   -0.188742
     4  C    0.324231
     5  C   -0.052855
     6  C   -0.335485
     7  C    0.200907
     8  C    0.403527
     9  C   -0.101930
    10  C    0.441963
    11  C    0.419501
    12  O   -0.439114
    13  C   -0.144539
    14  C   -0.265152
    15  C   -0.465165
    16  O   -0.507534
    17  C   -0.165041
    18  C    0.306763
    19  O   -0.541432
    20  C   -0.322867
    21  O   -0.658441
    22  C   -0.326057
    23  C    0.095983
    24  O   -0.591788
    25  C    0.182212
    26  C   -0.507938
    27  C   -0.393439
    28  C   -0.468837
    29  C   -0.459576
    30  H    0.143536
    31  H    0.163215
    32  C   -0.519550
    33  H    0.124094
    34  H    0.187080
    35  H    0.145485
    36  H    0.154777
    37  H    0.128972
    38  H    0.144799
    39  H    0.161328
    40  H    0.142747
    41  H    0.160113
    42  H    0.169818
    43  H    0.150895
    44  H    0.414153
    45  H    0.168959
    46  H    0.170006
    47  H    0.138998
    48  H    0.156672
    49  H    0.170519
    50  H    0.154377
    51  H    0.153409
    52  H    0.142196
    53  H    0.155658
    54  H    0.143711
    55  H    0.193138
    56  H    0.163009
    57  H    0.150920
    58  H    0.164596
    59  H    0.158932
    60  H    0.158345
    61  H    0.148888
    62  C   -0.464870
    63  H    0.135880
    64  H    0.141382
    65  H    0.174336
 Sum of Mulliken atomic charges =   0.00000
 Mulliken charges with hydrogens summed into heavy atoms:
              1
     1  C   -0.059676
     2  C    0.194093
     3  C   -0.025528
     4  C    0.324231
     5  C   -0.052855
     6  C   -0.002920
     7  C    0.200907
     8  C    0.403527
     9  C   -0.101930
    10  C    0.441963
    11  C    0.419501
    12  O   -0.439114
    13  C    0.010238
    14  C    0.008619
    15  C   -0.000977
    16  O   -0.507534
    17  C   -0.021505
    18  C    0.306763
    19  O   -0.541432
    20  C   -0.002154
    21  O   -0.244287
    22  C    0.012908
    23  C    0.234981
    24  O   -0.591788
    25  C    0.182212
    26  C   -0.026370
    27  C   -0.097833
    28  C    0.023669
    29  C    0.018949
    32  C   -0.053386
    62  C   -0.013272
 Sum of Mulliken charges with hydrogens summed into heavy atoms =   0.00000
 Electronic spatial extent (au):  <R**2>=          10889.5495
 Charge=              0.0000 electrons
 Dipole moment (field-independent basis, Debye):
    X=             -3.7287    Y=              2.7402    Z=             -4.1604  Tot=              6.2226
 Quadrupole moment (field-independent basis, Debye-Ang):
   XX=           -180.8112   YY=           -175.7787   ZZ=           -190.6229
   XY=              3.0988   XZ=             -9.5079   YZ=              0.7134
 Traceless Quadrupole moment (field-independent basis, Debye-Ang):
   XX=              1.5930   YY=              6.6256   ZZ=             -8.2186
   XY=              3.0988   XZ=             -9.5079   YZ=              0.7134
 Octapole moment (field-independent basis, Debye-Ang**2):
  XXX=            -14.9897  YYY=             27.5182  ZZZ=            -30.6182  XYY=             -0.9175
  XXY=            -23.3107  XXZ=            -35.1348  XZZ=            -35.6527  YZZ=             24.6066
  YYZ=            -22.2452  XYZ=             -8.6510
 Hexadecapole moment (field-independent basis, Debye-Ang**3):
 XXXX=          -6873.2826 YYYY=          -4253.3791 ZZZZ=          -3298.6764 XXXY=             -3.5970
 XXXZ=             10.0918 YYYX=             21.7594 YYYZ=              3.4186 ZZZX=            -50.3001
 ZZZY=              6.3687 XXYY=          -1847.3342 XXZZ=          -1737.5892 YYZZ=          -1245.2622
 XXYZ=             -1.1918 YYXZ=             16.6309 ZZXY=             43.0311
 N-N= 3.543748860349D+03 E-N=-1.031369996182D+04  KE= 1.374454575242D+03
 1\1\GINC-B0604\FOpt\RB3LYP\6-31G(d)\C26H34O5\CAOFEI\24-Mar-2021\0\\# o
 pt rb3lyp/6-31g(d) geom=connectivity\\Title Card Required\\0,1\C,-0.00
 97977171,0.0226025478,0.0452501532\C,1.327384144,-0.0126708926,0.05137
 93774\C,2.1504861354,1.2580208977,0.0211681252\C,1.3708588688,2.571861
 0209,-0.2988758706\C,-0.1325233405,2.4772773147,-0.6735712203\C,-0.828
 0433269,1.2832031517,0.0264174428\C,2.2253097016,3.2736082725,-1.39155
 38212\C,1.8414686758,2.8715434905,-2.7977339374\C,0.5957628742,2.54001
 54239,-3.1999684308\C,-0.4638450213,2.4087460595,-2.1887003304\C,0.255
 8633733,2.1007985187,-4.615500564\O,-0.0217579055,0.9331795142,-4.8117
 432818\C,0.2773927652,3.0978290736,-5.784868823\C,0.070237193,4.572039
 9001,-5.3966949057\C,1.5697416551,2.8847275727,-6.6045450158\O,-1.6355
 534008,2.2525482648,-2.5139412593\C,3.647507659,2.6737201088,-1.344610
 9002\C,4.1748752866,2.9213582115,-2.7783588482\O,2.9284689699,2.843692
 2591,-3.5908587408\C,3.3517423529,1.2084572561,-0.9678999347\O,2.14691
 4036,4.6845222574,-1.3048321796\C,-0.6822067016,3.8184505345,-0.117822
 1217\C,0.1176512692,4.0034923926,1.1673879809\O,1.4247324716,3.4305503
 897,0.8697263772\C,0.3215944033,5.4021377871,1.712245694\C,1.202680100
 5,5.4824312836,2.9360513077\C,-0.2632661472,6.4801970292,1.1808812891\
 C,4.7662946955,4.3211379892,-2.9604003736\C,5.1141230113,1.857065404,-
 3.3388036119\H,4.2716109596,3.168146843,-0.5936599978\H,2.5618515047,1
 .4202920493,1.0279915491\C,2.0889747726,-1.3111261873,0.1543201192\H,-
 0.5623486496,-0.9144502132,0.0984312426\H,-1.7835861189,1.12008449,-0.
 4808589638\H,-1.0790503134,1.5595734892,1.0617055008\H,-0.5613569184,2
 .7766609464,-6.4176154048\H,0.3130573574,5.1914101806,-6.2706865563\H,
 0.7899700759,4.8536207711,-4.6175909771\H,2.4550791268,3.1906066861,-6
 .0396113206\H,1.5265198736,3.475763656,-7.526395375\H,1.6815927874,1.8
 304604714,-6.8768121707\H,3.0594510208,0.6433212801,-1.8599275359\H,4.
 2190177223,0.7008127796,-0.5360703575\H,2.0847839747,4.8611470229,-0.3
 446817026\H,-1.7616815449,3.774963898,0.0480664098\H,-0.4674054365,4.6
 288066373,-0.8198600828\H,-0.3206225529,3.3935329079,1.9730634674\H,0.
 7811081035,4.8905713319,3.7602350337\H,2.1970866964,5.0690795768,2.732
 218082\H,1.3161643586,6.514392005,3.280747184\H,-0.9116848299,6.429761
 6893,0.3121085653\H,-0.1185220619,7.4664368033,1.6148281597\H,4.953012
 2604,4.5117701504,-4.0223881669\H,5.7217093919,4.3949911497,-2.4281213
 008\H,4.0892879355,5.0845164144,-2.5727678101\H,5.3706538188,2.0912406
 037,-4.3769202219\H,6.041709413,1.8351512838,-2.7559707882\H,4.6655769
 008,0.8613110984,-3.3165899441\H,1.4068902849,-2.1621243547,0.24329064
 74\H,2.7284235017,-1.4854101518,-0.7204380606\H,2.7503279675,-1.314098
 3103,1.03275433\C,-1.3577837106,4.8911344264,-4.9362185037\H,-1.447627
 6985,5.9400773188,-4.6307302072\H,-2.0748400258,4.7189560073,-5.748536
 113\H,-1.6655460286,4.2630722155,-4.0938323061\\Version=EM64L-G09RevB.
 01\State=1-A\HF=-1387.3154288\RMSD=4.787e-09\RMSF=5.288e-06\Dipole=1.7
 608939,0.6669502,1.5645684\Quadrupole=0.6538575,-1.550644,0.8967865,-5
 .7995481,-5.9203339,-4.069017\PG=C01 [X(C26H34O5)]\\@


 WE HAVE LEARNED THAT NOTHING IS SIMPLE AND
 RATIONAL EXCEPT WHAT WE OURSELVES HAVE INVENTED;
 THAT GOD THINKS IN TERMS NEITHER OF EUCLID OR RIEMANN; THAT SCIENCE HAS "EXPLAINED" NOTHING;
 THAT THE MORE WE KNOW THE MORE FANTASTIC THE WORLD BECOMES
 AND THE PROFOUNDER THE SURROUNDING DARKNESS.
   --  ALDOUS HUXLEY
 Job cpu time:  0 days  5 hours 16 minutes 26.5 seconds.
 File lengths (MBytes):  RWF=    186 Int=      0 D2E=      0 Chk=     20 Scr=      1
 Normal termination of Gaussian 09 at Wed Mar 24 16:24:32 2021.
