 Entering Gaussian System, Link 0=g09
 Initial command:
 /public/software/g09/g09/l1.exe /tmp/Gau-27392.inp -scrdir=/tmp/
 Entering Link 1 = /public/software/g09/g09/l1.exe PID=     27393.
  
 Copyright (c) 1988,1990,1992,1993,1995,1998,2003,2009,2010,
            Gaussian, Inc.  All Rights Reserved.
  
 This is part of the Gaussian(R) 09 program.  It is based on
 the Gaussian(R) 03 system (copyright 2003, Gaussian, Inc.),
 the Gaussian(R) 98 system (copyright 1998, Gaussian, Inc.),
 the Gaussian(R) 94 system (copyright 1995, Gaussian, Inc.),
 the Gaussian 92(TM) system (copyright 1992, Gaussian, Inc.),
 the Gaussian 90(TM) system (copyright 1990, Gaussian, Inc.),
 the Gaussian 88(TM) system (copyright 1988, Gaussian, Inc.),
 the Gaussian 86(TM) system (copyright 1986, Carnegie Mellon
 University), and the Gaussian 82(TM) system (copyright 1983,
 Carnegie Mellon University). Gaussian is a federally registered
 trademark of Gaussian, Inc.
  
 This software contains proprietary and confidential information,
 including trade secrets, belonging to Gaussian, Inc.
  
 This software is provided under written license and may be
 used, copied, transmitted, or stored only in accord with that
 written license.
  
 The following legend is applicable only to US Government
 contracts under FAR:
  
                    RESTRICTED RIGHTS LEGEND
  
 Use, reproduction and disclosure by the US Government is
 subject to restrictions as set forth in subparagraphs (a)
 and (c) of the Commercial Computer Software - Restricted
 Rights clause in FAR 52.227-19.
  
 Gaussian, Inc.
 340 Quinnipiac St., Bldg. 40, Wallingford CT 06492
  
  
 ---------------------------------------------------------------
 Warning -- This program may not be used in any manner that
 competes with the business of Gaussian, Inc. or will provide
 assistance to any competitor of Gaussian, Inc.  The licensee
 of this program is prohibited from giving any competitor of
 Gaussian, Inc. access to this program.  By using this program,
 the user acknowledges that Gaussian, Inc. is engaged in the
 business of creating and licensing software in the field of
 computational chemistry and represents and warrants to the
 licensee that it is not a competitor of Gaussian, Inc. and that
 it will not use this program in any manner prohibited above.
 ---------------------------------------------------------------
  

 Cite this work as:
 Gaussian 09, Revision B.01,
 M. J. Frisch, G. W. Trucks, H. B. Schlegel, G. E. Scuseria, 
 M. A. Robb, J. R. Cheeseman, G. Scalmani, V. Barone, B. Mennucci, 
 G. A. Petersson, H. Nakatsuji, M. Caricato, X. Li, H. P. Hratchian, 
 A. F. Izmaylov, J. Bloino, G. Zheng, J. L. Sonnenberg, M. Hada, 
 M. Ehara, K. Toyota, R. Fukuda, J. Hasegawa, M. Ishida, T. Nakajima, 
 Y. Honda, O. Kitao, H. Nakai, T. Vreven, J. A. Montgomery, Jr., 
 J. E. Peralta, F. Ogliaro, M. Bearpark, J. J. Heyd, E. Brothers, 
 K. N. Kudin, V. N. Staroverov, T. Keith, R. Kobayashi, J. Normand, 
 K. Raghavachari, A. Rendell, J. C. Burant, S. S. Iyengar, J. Tomasi, 
 M. Cossi, N. Rega, J. M. Millam, M. Klene, J. E. Knox, J. B. Cross, 
 V. Bakken, C. Adamo, J. Jaramillo, R. Gomperts, R. E. Stratmann, 
 O. Yazyev, A. J. Austin, R. Cammi, C. Pomelli, J. W. Ochterski, 
 R. L. Martin, K. Morokuma, V. G. Zakrzewski, G. A. Voth, 
 P. Salvador, J. J. Dannenberg, S. Dapprich, A. D. Daniels, 
 O. Farkas, J. B. Foresman, J. V. Ortiz, J. Cioslowski, 
 and D. J. Fox, Gaussian, Inc., Wallingford CT, 2010.
 
 ******************************************
 Gaussian 09:  EM64L-G09RevB.01 12-Aug-2010
                24-Mar-2021 
 ******************************************
 %mem=600MW
 %nprocshared=10
 Will use up to   10 processors via shared memory.
 ---------------------------------------
 # opt rb3lyp/6-31g(d) geom=connectivity
 ---------------------------------------
 1/14=-1,18=20,19=15,26=3,38=1,57=2/1,3;
 2/9=110,12=2,17=6,18=5,40=1/2;
 3/5=1,6=6,7=1,11=2,16=1,25=1,30=1,71=1,74=-5,116=1/1,2,3;
 4//1;
 5/5=2,38=5/2;
 6/7=2,8=2,9=2,10=2,28=1/1;
 7//1,2,3,16;
 1/14=-1,18=20,19=15/3(2);
 2/9=110/2;
 99//99;
 2/9=110/2;
 3/5=1,6=6,7=1,11=2,16=1,25=1,30=1,71=1,74=-5,116=1/1,2,3;
 4/5=5,16=3/1;
 5/5=2,38=5/2;
 7//1,2,3,16;
 1/14=-1,18=20,19=15/3(-5);
 2/9=110/2;
 6/7=2,8=2,9=2,10=2,19=2,28=1/1;
 99/9=1/99;
 -------------------
 Title Card Required
 -------------------
 Symbolic Z-matrix:
 Charge =  0 Multiplicity = 1
 C                     0.        0.        0. 
 C                     1.3411    0.        0. 
 C                     2.135     1.2844    0. 
 C                     1.3374    2.5842   -0.3085 
 C                    -0.1619    2.4675   -0.6275 
 C                    -0.8332    1.2393    0.0217 
 C                     2.1309    3.2781   -1.4336 
 C                     1.7494    2.886    -2.8192 
 C                     0.5133    2.5101   -3.1601 
 C                    -0.5376    2.4876   -2.1172 
 C                     0.2288    2.0175   -4.5263 
 O                     0.0052    0.8111   -4.6691 
 C                     0.2175    2.9661   -5.7309 
 C                     0.3095    4.4768   -5.4579 
 C                     1.3366    2.5418   -6.688 
 O                    -1.7218    2.5156   -2.4618 
 C                     3.5416    2.7325   -1.3955 
 C                     4.023     2.94     -2.8464 
 O                     2.8427    2.7787   -3.6738 
 C                     3.306     1.2662   -0.9989 
 O                     2.0826    4.6908   -1.3335 
 C                    -0.7139    3.7515   -0.0014 
 C                     0.1442    3.9254    1.2415 
 O                     1.448     3.4449    0.8707 
 C                     0.2038    5.3418    1.7717 
 C                    -1.1252    5.979     2.0833 
 C                     1.3456    6.0106    2.0115 
 C                     4.5905    4.3471   -3.093 
 C                     5.0712    1.9165   -3.2971 
 H                     4.184     3.2387   -0.666 
 H                     2.5734    1.3773    1.0047 
 C                     2.1096   -1.292     0.0917 
 H                    -0.5431   -0.9427    0.0453 
 H                    -1.0959    1.43      1.0694 
 H                    -1.7845    1.0136   -0.4765 
 H                    -0.7397    2.7803   -6.2374 
 H                     1.1527    4.7191   -4.8038 
 H                     0.504     4.9964   -6.4052 
 H                     1.261     3.0816   -7.6379 
 H                     1.2857    1.4707   -6.9118 
 H                     2.325     2.7436   -6.2635 
 H                     4.2089    0.8323   -0.5544 
 H                     3.0469    0.6488   -1.8676 
 H                     2.1443    4.8911   -0.3783 
 H                    -1.782     3.6924    0.2373 
 H                    -0.5858    4.6017   -0.6851 
 H                    -0.2144    3.2752    2.0487 
 H                    -1.7048    6.1313    1.1675 
 H                    -1.702     5.3407    2.7606 
 H                    -1.012     6.9548    2.5678 
 H                     2.3209    5.5673    1.8399 
 H                     1.338     7.0213    2.4091 
 H                     3.8457    5.1329   -2.942 
 H                     4.9155    4.4535   -4.1349 
 H                     5.4483    4.549    -2.4434 
 H                     5.9477    1.9283   -2.6415 
 H                     5.4037    2.1281   -4.3204 
 H                     4.6674    0.9      -3.3304 
 H                     1.4499   -2.1534    0.2422 
 H                     2.6804   -1.4721   -0.8242 
 H                     2.8045   -1.26      0.9372 
 C                    -0.9692    5.0689   -4.8808 
 H                    -1.1812    4.6909   -3.8797 
 H                    -1.8286    4.8493   -5.5222 
 H                    -0.8755    6.1574   -4.8072 
 

 GradGradGradGradGradGradGradGradGradGradGradGradGradGradGradGradGradGrad
 Berny optimization.
 Initialization pass.
                           ----------------------------
                           !    Initial Parameters    !
                           ! (Angstroms and Degrees)  !
 --------------------------                            --------------------------
 ! Name  Definition              Value          Derivative Info.                !
 --------------------------------------------------------------------------------
 ! R1    R(1,2)                  1.3411         estimate D2E/DX2                !
 ! R2    R(1,6)                  1.4935         estimate D2E/DX2                !
 ! R3    R(1,33)                 1.0889         estimate D2E/DX2                !
 ! R4    R(2,3)                  1.51           estimate D2E/DX2                !
 ! R5    R(2,32)                 1.5061         estimate D2E/DX2                !
 ! R6    R(3,4)                  1.5559         estimate D2E/DX2                !
 ! R7    R(3,20)                 1.5393         estimate D2E/DX2                !
 ! R8    R(3,31)                 1.1001         estimate D2E/DX2                !
 ! R9    R(4,5)                  1.5373         estimate D2E/DX2                !
 ! R10   R(4,7)                  1.5417         estimate D2E/DX2                !
 ! R11   R(4,24)                 1.4641         estimate D2E/DX2                !
 ! R12   R(5,6)                  1.5429         estimate D2E/DX2                !
 ! R13   R(5,10)                 1.5365         estimate D2E/DX2                !
 ! R14   R(5,22)                 1.5315         estimate D2E/DX2                !
 ! R15   R(6,34)                 1.0968         estimate D2E/DX2                !
 ! R16   R(6,35)                 1.0973         estimate D2E/DX2                !
 ! R17   R(7,8)                  1.4897         estimate D2E/DX2                !
 ! R18   R(7,17)                 1.513          estimate D2E/DX2                !
 ! R19   R(7,21)                 1.4171         estimate D2E/DX2                !
 ! R20   R(8,9)                  1.3362         estimate D2E/DX2                !
 ! R21   R(8,19)                 1.3918         estimate D2E/DX2                !
 ! R22   R(9,10)                 1.4807         estimate D2E/DX2                !
 ! R23   R(9,11)                 1.4799         estimate D2E/DX2                !
 ! R24   R(10,16)                1.2336         estimate D2E/DX2                !
 ! R25   R(11,12)                1.2352         estimate D2E/DX2                !
 ! R26   R(11,13)                1.5333         estimate D2E/DX2                !
 ! R27   R(13,14)                1.5379         estimate D2E/DX2                !
 ! R28   R(13,15)                1.5325         estimate D2E/DX2                !
 ! R29   R(13,36)                1.0988         estimate D2E/DX2                !
 ! R30   R(14,37)                1.0943         estimate D2E/DX2                !
 ! R31   R(14,38)                1.0978         estimate D2E/DX2                !
 ! R32   R(14,62)                1.5227         estimate D2E/DX2                !
 ! R33   R(15,39)                1.0952         estimate D2E/DX2                !
 ! R34   R(15,40)                1.0954         estimate D2E/DX2                !
 ! R35   R(15,41)                1.0945         estimate D2E/DX2                !
 ! R36   R(17,18)                1.5427         estimate D2E/DX2                !
 ! R37   R(17,20)                1.5372         estimate D2E/DX2                !
 ! R38   R(17,30)                1.0959         estimate D2E/DX2                !
 ! R39   R(18,19)                1.4504         estimate D2E/DX2                !
 ! R40   R(18,28)                1.5371         estimate D2E/DX2                !
 ! R41   R(18,29)                1.5328         estimate D2E/DX2                !
 ! R42   R(20,42)                1.0959         estimate D2E/DX2                !
 ! R43   R(20,43)                1.0968         estimate D2E/DX2                !
 ! R44   R(21,44)                0.9779         estimate D2E/DX2                !
 ! R45   R(22,23)                1.5203         estimate D2E/DX2                !
 ! R46   R(22,45)                1.096          estimate D2E/DX2                !
 ! R47   R(22,46)                1.0985         estimate D2E/DX2                !
 ! R48   R(23,24)                1.4381         estimate D2E/DX2                !
 ! R49   R(23,25)                1.5136         estimate D2E/DX2                !
 ! R50   R(23,47)                1.0968         estimate D2E/DX2                !
 ! R51   R(25,26)                1.5064         estimate D2E/DX2                !
 ! R52   R(25,27)                1.3448         estimate D2E/DX2                !
 ! R53   R(26,48)                1.0945         estimate D2E/DX2                !
 ! R54   R(26,49)                1.0949         estimate D2E/DX2                !
 ! R55   R(26,50)                1.0953         estimate D2E/DX2                !
 ! R56   R(27,51)                1.085          estimate D2E/DX2                !
 ! R57   R(27,52)                1.0861         estimate D2E/DX2                !
 ! R58   R(28,53)                1.0932         estimate D2E/DX2                !
 ! R59   R(28,54)                1.0966         estimate D2E/DX2                !
 ! R60   R(28,55)                1.0948         estimate D2E/DX2                !
 ! R61   R(29,56)                1.0946         estimate D2E/DX2                !
 ! R62   R(29,57)                1.0966         estimate D2E/DX2                !
 ! R63   R(29,58)                1.0943         estimate D2E/DX2                !
 ! R64   R(32,59)                1.0954         estimate D2E/DX2                !
 ! R65   R(32,60)                1.0941         estimate D2E/DX2                !
 ! R66   R(32,61)                1.0949         estimate D2E/DX2                !
 ! R67   R(62,63)                1.0909         estimate D2E/DX2                !
 ! R68   R(62,64)                1.0946         estimate D2E/DX2                !
 ! R69   R(62,65)                1.095          estimate D2E/DX2                !
 ! A1    A(2,1,6)              123.9095         estimate D2E/DX2                !
 ! A2    A(2,1,33)             119.9182         estimate D2E/DX2                !
 ! A3    A(6,1,33)             116.0739         estimate D2E/DX2                !
 ! A4    A(1,2,3)              121.7206         estimate D2E/DX2                !
 ! A5    A(1,2,32)             120.6816         estimate D2E/DX2                !
 ! A6    A(3,2,32)             117.4792         estimate D2E/DX2                !
 ! A7    A(2,3,4)              116.1729         estimate D2E/DX2                !
 ! A8    A(2,3,20)             112.9499         estimate D2E/DX2                !
 ! A9    A(2,3,31)             106.3412         estimate D2E/DX2                !
 ! A10   A(4,3,20)             105.735          estimate D2E/DX2                !
 ! A11   A(4,3,31)             108.35           estimate D2E/DX2                !
 ! A12   A(20,3,31)            106.8876         estimate D2E/DX2                !
 ! A13   A(3,4,5)              118.5344         estimate D2E/DX2                !
 ! A14   A(3,4,7)              104.8831         estimate D2E/DX2                !
 ! A15   A(3,4,24)             107.0191         estimate D2E/DX2                !
 ! A16   A(5,4,7)              112.6246         estimate D2E/DX2                !
 ! A17   A(5,4,24)             106.5847         estimate D2E/DX2                !
 ! A18   A(7,4,24)             106.5165         estimate D2E/DX2                !
 ! A19   A(4,5,6)              113.4188         estimate D2E/DX2                !
 ! A20   A(4,5,10)             116.0193         estimate D2E/DX2                !
 ! A21   A(4,5,22)             101.7155         estimate D2E/DX2                !
 ! A22   A(6,5,10)             108.1785         estimate D2E/DX2                !
 ! A23   A(6,5,22)             109.7892         estimate D2E/DX2                !
 ! A24   A(10,5,22)            107.2941         estimate D2E/DX2                !
 ! A25   A(1,6,5)              114.3115         estimate D2E/DX2                !
 ! A26   A(1,6,34)             106.9637         estimate D2E/DX2                !
 ! A27   A(1,6,35)             107.8408         estimate D2E/DX2                !
 ! A28   A(5,6,34)             111.575          estimate D2E/DX2                !
 ! A29   A(5,6,35)             110.4803         estimate D2E/DX2                !
 ! A30   A(34,6,35)            105.1769         estimate D2E/DX2                !
 ! A31   A(4,7,8)              115.3722         estimate D2E/DX2                !
 ! A32   A(4,7,17)             107.4094         estimate D2E/DX2                !
 ! A33   A(4,7,21)             112.3086         estimate D2E/DX2                !
 ! A34   A(8,7,17)              99.6299         estimate D2E/DX2                !
 ! A35   A(8,7,21)             108.625          estimate D2E/DX2                !
 ! A36   A(17,7,21)            112.9231         estimate D2E/DX2                !
 ! A37   A(7,8,9)              123.2471         estimate D2E/DX2                !
 ! A38   A(7,8,19)             112.9694         estimate D2E/DX2                !
 ! A39   A(9,8,19)             123.2524         estimate D2E/DX2                !
 ! A40   A(8,9,10)             118.7595         estimate D2E/DX2                !
 ! A41   A(8,9,11)             120.4644         estimate D2E/DX2                !
 ! A42   A(10,9,11)            120.578          estimate D2E/DX2                !
 ! A43   A(5,10,9)             120.6328         estimate D2E/DX2                !
 ! A44   A(5,10,16)            120.3878         estimate D2E/DX2                !
 ! A45   A(9,10,16)            118.9596         estimate D2E/DX2                !
 ! A46   A(9,11,12)            117.8149         estimate D2E/DX2                !
 ! A47   A(9,11,13)            121.3827         estimate D2E/DX2                !
 ! A48   A(12,11,13)           120.8016         estimate D2E/DX2                !
 ! A49   A(11,13,14)           117.8924         estimate D2E/DX2                !
 ! A50   A(11,13,15)           108.2996         estimate D2E/DX2                !
 ! A51   A(11,13,36)           105.3048         estimate D2E/DX2                !
 ! A52   A(14,13,15)           109.8253         estimate D2E/DX2                !
 ! A53   A(14,13,36)           107.4604         estimate D2E/DX2                !
 ! A54   A(15,13,36)           107.5449         estimate D2E/DX2                !
 ! A55   A(13,14,37)           111.6966         estimate D2E/DX2                !
 ! A56   A(13,14,38)           108.8051         estimate D2E/DX2                !
 ! A57   A(13,14,62)           113.5157         estimate D2E/DX2                !
 ! A58   A(37,14,38)           105.9299         estimate D2E/DX2                !
 ! A59   A(37,14,62)           109.5369         estimate D2E/DX2                !
 ! A60   A(38,14,62)           106.9638         estimate D2E/DX2                !
 ! A61   A(13,15,39)           110.7827         estimate D2E/DX2                !
 ! A62   A(13,15,40)           111.3703         estimate D2E/DX2                !
 ! A63   A(13,15,41)           111.4815         estimate D2E/DX2                !
 ! A64   A(39,15,40)           107.5499         estimate D2E/DX2                !
 ! A65   A(39,15,41)           107.9309         estimate D2E/DX2                !
 ! A66   A(40,15,41)           107.5474         estimate D2E/DX2                !
 ! A67   A(7,17,18)            102.6364         estimate D2E/DX2                !
 ! A68   A(7,17,20)            101.9803         estimate D2E/DX2                !
 ! A69   A(7,17,30)            113.3739         estimate D2E/DX2                !
 ! A70   A(18,17,20)           114.7582         estimate D2E/DX2                !
 ! A71   A(18,17,30)           112.3951         estimate D2E/DX2                !
 ! A72   A(20,17,30)           111.0202         estimate D2E/DX2                !
 ! A73   A(17,18,19)           105.5225         estimate D2E/DX2                !
 ! A74   A(17,18,28)           112.9056         estimate D2E/DX2                !
 ! A75   A(17,18,29)           113.5862         estimate D2E/DX2                !
 ! A76   A(19,18,28)           108.1026         estimate D2E/DX2                !
 ! A77   A(19,18,29)           108.3307         estimate D2E/DX2                !
 ! A78   A(28,18,29)           108.156          estimate D2E/DX2                !
 ! A79   A(8,19,18)            106.2832         estimate D2E/DX2                !
 ! A80   A(3,20,17)            105.8282         estimate D2E/DX2                !
 ! A81   A(3,20,42)            111.6064         estimate D2E/DX2                !
 ! A82   A(3,20,43)            109.9333         estimate D2E/DX2                !
 ! A83   A(17,20,42)           110.8572         estimate D2E/DX2                !
 ! A84   A(17,20,43)           111.643          estimate D2E/DX2                !
 ! A85   A(42,20,43)           107.0375         estimate D2E/DX2                !
 ! A86   A(7,21,44)            105.726          estimate D2E/DX2                !
 ! A87   A(5,22,23)            103.1021         estimate D2E/DX2                !
 ! A88   A(5,22,45)            113.2709         estimate D2E/DX2                !
 ! A89   A(5,22,46)            110.6356         estimate D2E/DX2                !
 ! A90   A(23,22,45)           112.2195         estimate D2E/DX2                !
 ! A91   A(23,22,46)           110.7613         estimate D2E/DX2                !
 ! A92   A(45,22,46)           106.9132         estimate D2E/DX2                !
 ! A93   A(22,23,24)           105.2299         estimate D2E/DX2                !
 ! A94   A(22,23,25)           114.56           estimate D2E/DX2                !
 ! A95   A(22,23,47)           110.446          estimate D2E/DX2                !
 ! A96   A(24,23,25)           111.5482         estimate D2E/DX2                !
 ! A97   A(24,23,47)           106.7443         estimate D2E/DX2                !
 ! A98   A(25,23,47)           108.0493         estimate D2E/DX2                !
 ! A99   A(4,24,23)            109.6086         estimate D2E/DX2                !
 ! A100  A(23,25,26)           115.6931         estimate D2E/DX2                !
 ! A101  A(23,25,27)           124.1454         estimate D2E/DX2                !
 ! A102  A(26,25,27)           120.1188         estimate D2E/DX2                !
 ! A103  A(25,26,48)           110.6699         estimate D2E/DX2                !
 ! A104  A(25,26,49)           110.2497         estimate D2E/DX2                !
 ! A105  A(25,26,50)           112.157          estimate D2E/DX2                !
 ! A106  A(48,26,49)           108.6479         estimate D2E/DX2                !
 ! A107  A(48,26,50)           107.5111         estimate D2E/DX2                !
 ! A108  A(49,26,50)           107.4679         estimate D2E/DX2                !
 ! A109  A(25,27,51)           122.1285         estimate D2E/DX2                !
 ! A110  A(25,27,52)           121.4747         estimate D2E/DX2                !
 ! A111  A(51,27,52)           116.3848         estimate D2E/DX2                !
 ! A112  A(18,28,53)           112.6014         estimate D2E/DX2                !
 ! A113  A(18,28,54)           110.5281         estimate D2E/DX2                !
 ! A114  A(18,28,55)           111.2784         estimate D2E/DX2                !
 ! A115  A(53,28,54)           105.2732         estimate D2E/DX2                !
 ! A116  A(53,28,55)           108.6213         estimate D2E/DX2                !
 ! A117  A(54,28,55)           108.2796         estimate D2E/DX2                !
 ! A118  A(18,29,56)           111.3631         estimate D2E/DX2                !
 ! A119  A(18,29,57)           110.6648         estimate D2E/DX2                !
 ! A120  A(18,29,58)           112.1406         estimate D2E/DX2                !
 ! A121  A(56,29,57)           108.3023         estimate D2E/DX2                !
 ! A122  A(56,29,58)           108.888          estimate D2E/DX2                !
 ! A123  A(57,29,58)           105.2329         estimate D2E/DX2                !
 ! A124  A(2,32,59)            112.0656         estimate D2E/DX2                !
 ! A125  A(2,32,60)            110.8819         estimate D2E/DX2                !
 ! A126  A(2,32,61)            110.2306         estimate D2E/DX2                !
 ! A127  A(59,32,60)           107.4433         estimate D2E/DX2                !
 ! A128  A(59,32,61)           107.4048         estimate D2E/DX2                !
 ! A129  A(60,32,61)           108.6712         estimate D2E/DX2                !
 ! A130  A(14,62,63)           112.1019         estimate D2E/DX2                !
 ! A131  A(14,62,64)           111.0519         estimate D2E/DX2                !
 ! A132  A(14,62,65)           109.886          estimate D2E/DX2                !
 ! A133  A(63,62,64)           108.3994         estimate D2E/DX2                !
 ! A134  A(63,62,65)           107.4214         estimate D2E/DX2                !
 ! A135  A(64,62,65)           107.818          estimate D2E/DX2                !
 ! D1    D(6,1,2,3)             -1.0031         estimate D2E/DX2                !
 ! D2    D(6,1,2,32)           174.9371         estimate D2E/DX2                !
 ! D3    D(33,1,2,3)          -177.2489         estimate D2E/DX2                !
 ! D4    D(33,1,2,32)           -1.3086         estimate D2E/DX2                !
 ! D5    D(2,1,6,5)             28.485          estimate D2E/DX2                !
 ! D6    D(2,1,6,34)           -95.5473         estimate D2E/DX2                !
 ! D7    D(2,1,6,35)           151.7647         estimate D2E/DX2                !
 ! D8    D(33,1,6,5)          -155.1375         estimate D2E/DX2                !
 ! D9    D(33,1,6,34)           80.8302         estimate D2E/DX2                !
 ! D10   D(33,1,6,35)          -31.8578         estimate D2E/DX2                !
 ! D11   D(1,2,3,4)            -12.7637         estimate D2E/DX2                !
 ! D12   D(1,2,3,20)          -135.1929         estimate D2E/DX2                !
 ! D13   D(1,2,3,31)           107.8772         estimate D2E/DX2                !
 ! D14   D(32,2,3,4)           171.1716         estimate D2E/DX2                !
 ! D15   D(32,2,3,20)           48.7424         estimate D2E/DX2                !
 ! D16   D(32,2,3,31)          -68.1875         estimate D2E/DX2                !
 ! D17   D(1,2,32,59)           -5.0375         estimate D2E/DX2                !
 ! D18   D(1,2,32,60)          115.0178         estimate D2E/DX2                !
 ! D19   D(1,2,32,61)         -124.5999         estimate D2E/DX2                !
 ! D20   D(3,2,32,59)          171.0703         estimate D2E/DX2                !
 ! D21   D(3,2,32,60)          -68.8744         estimate D2E/DX2                !
 ! D22   D(3,2,32,61)           51.5079         estimate D2E/DX2                !
 ! D23   D(2,3,4,5)             -1.8208         estimate D2E/DX2                !
 ! D24   D(2,3,4,7)           -128.5179         estimate D2E/DX2                !
 ! D25   D(2,3,4,24)           118.591          estimate D2E/DX2                !
 ! D26   D(20,3,4,5)           124.3263         estimate D2E/DX2                !
 ! D27   D(20,3,4,7)            -2.3708         estimate D2E/DX2                !
 ! D28   D(20,3,4,24)         -115.2619         estimate D2E/DX2                !
 ! D29   D(31,3,4,5)          -121.3792         estimate D2E/DX2                !
 ! D30   D(31,3,4,7)           111.9236         estimate D2E/DX2                !
 ! D31   D(31,3,4,24)           -0.9675         estimate D2E/DX2                !
 ! D32   D(2,3,20,17)          152.4743         estimate D2E/DX2                !
 ! D33   D(2,3,20,42)          -86.8403         estimate D2E/DX2                !
 ! D34   D(2,3,20,43)           31.7704         estimate D2E/DX2                !
 ! D35   D(4,3,20,17)           24.3806         estimate D2E/DX2                !
 ! D36   D(4,3,20,42)          145.066          estimate D2E/DX2                !
 ! D37   D(4,3,20,43)          -96.3233         estimate D2E/DX2                !
 ! D38   D(31,3,20,17)         -90.919          estimate D2E/DX2                !
 ! D39   D(31,3,20,42)          29.7663         estimate D2E/DX2                !
 ! D40   D(31,3,20,43)         148.377          estimate D2E/DX2                !
 ! D41   D(3,4,5,6)             27.4731         estimate D2E/DX2                !
 ! D42   D(3,4,5,10)           -98.6671         estimate D2E/DX2                !
 ! D43   D(3,4,5,22)           145.2883         estimate D2E/DX2                !
 ! D44   D(7,4,5,6)            150.3846         estimate D2E/DX2                !
 ! D45   D(7,4,5,10)            24.2445         estimate D2E/DX2                !
 ! D46   D(7,4,5,22)           -91.8002         estimate D2E/DX2                !
 ! D47   D(24,4,5,6)           -93.1612         estimate D2E/DX2                !
 ! D48   D(24,4,5,10)          140.6987         estimate D2E/DX2                !
 ! D49   D(24,4,5,22)           24.654          estimate D2E/DX2                !
 ! D50   D(3,4,7,8)             89.0657         estimate D2E/DX2                !
 ! D51   D(3,4,7,17)           -20.9778         estimate D2E/DX2                !
 ! D52   D(3,4,7,21)          -145.7193         estimate D2E/DX2                !
 ! D53   D(5,4,7,8)            -41.1928         estimate D2E/DX2                !
 ! D54   D(5,4,7,17)          -151.2363         estimate D2E/DX2                !
 ! D55   D(5,4,7,21)            84.0223         estimate D2E/DX2                !
 ! D56   D(24,4,7,8)          -157.6876         estimate D2E/DX2                !
 ! D57   D(24,4,7,17)           92.2689         estimate D2E/DX2                !
 ! D58   D(24,4,7,21)          -32.4726         estimate D2E/DX2                !
 ! D59   D(3,4,24,23)         -131.301          estimate D2E/DX2                !
 ! D60   D(5,4,24,23)           -3.5371         estimate D2E/DX2                !
 ! D61   D(7,4,24,23)          116.9255         estimate D2E/DX2                !
 ! D62   D(4,5,6,1)            -39.8814         estimate D2E/DX2                !
 ! D63   D(4,5,6,34)            81.6465         estimate D2E/DX2                !
 ! D64   D(4,5,6,35)          -161.7247         estimate D2E/DX2                !
 ! D65   D(10,5,6,1)            90.3137         estimate D2E/DX2                !
 ! D66   D(10,5,6,34)         -148.1583         estimate D2E/DX2                !
 ! D67   D(10,5,6,35)          -31.5296         estimate D2E/DX2                !
 ! D68   D(22,5,6,1)          -152.8989         estimate D2E/DX2                !
 ! D69   D(22,5,6,34)          -31.3709         estimate D2E/DX2                !
 ! D70   D(22,5,6,35)           85.2578         estimate D2E/DX2                !
 ! D71   D(4,5,10,9)             4.6455         estimate D2E/DX2                !
 ! D72   D(4,5,10,16)         -173.7183         estimate D2E/DX2                !
 ! D73   D(6,5,10,9)          -124.0956         estimate D2E/DX2                !
 ! D74   D(6,5,10,16)           57.5406         estimate D2E/DX2                !
 ! D75   D(22,5,10,9)          117.5153         estimate D2E/DX2                !
 ! D76   D(22,5,10,16)         -60.8485         estimate D2E/DX2                !
 ! D77   D(4,5,22,23)          -35.6631         estimate D2E/DX2                !
 ! D78   D(4,5,22,45)         -157.1795         estimate D2E/DX2                !
 ! D79   D(4,5,22,46)           82.7972         estimate D2E/DX2                !
 ! D80   D(6,5,22,23)           84.7343         estimate D2E/DX2                !
 ! D81   D(6,5,22,45)          -36.7821         estimate D2E/DX2                !
 ! D82   D(6,5,22,46)         -156.8054         estimate D2E/DX2                !
 ! D83   D(10,5,22,23)        -157.9247         estimate D2E/DX2                !
 ! D84   D(10,5,22,45)          80.5589         estimate D2E/DX2                !
 ! D85   D(10,5,22,46)         -39.4644         estimate D2E/DX2                !
 ! D86   D(4,7,8,9)             30.442          estimate D2E/DX2                !
 ! D87   D(4,7,8,19)          -141.4337         estimate D2E/DX2                !
 ! D88   D(17,7,8,9)           145.0455         estimate D2E/DX2                !
 ! D89   D(17,7,8,19)          -26.8302         estimate D2E/DX2                !
 ! D90   D(21,7,8,9)           -96.655          estimate D2E/DX2                !
 ! D91   D(21,7,8,19)           91.4693         estimate D2E/DX2                !
 ! D92   D(4,7,17,18)          154.7358         estimate D2E/DX2                !
 ! D93   D(4,7,17,20)           35.6371         estimate D2E/DX2                !
 ! D94   D(4,7,17,30)          -83.7808         estimate D2E/DX2                !
 ! D95   D(8,7,17,18)           34.1592         estimate D2E/DX2                !
 ! D96   D(8,7,17,20)          -84.9395         estimate D2E/DX2                !
 ! D97   D(8,7,17,30)          155.6426         estimate D2E/DX2                !
 ! D98   D(21,7,17,18)         -80.8944         estimate D2E/DX2                !
 ! D99   D(21,7,17,20)         160.0069         estimate D2E/DX2                !
 ! D100  D(21,7,17,30)          40.5889         estimate D2E/DX2                !
 ! D101  D(4,7,21,44)           39.1062         estimate D2E/DX2                !
 ! D102  D(8,7,21,44)          167.9385         estimate D2E/DX2                !
 ! D103  D(17,7,21,44)         -82.5383         estimate D2E/DX2                !
 ! D104  D(7,8,9,10)             0.4075         estimate D2E/DX2                !
 ! D105  D(7,8,9,11)          -174.5079         estimate D2E/DX2                !
 ! D106  D(19,8,9,10)          171.4563         estimate D2E/DX2                !
 ! D107  D(19,8,9,11)           -3.4591         estimate D2E/DX2                !
 ! D108  D(7,8,19,18)            6.734          estimate D2E/DX2                !
 ! D109  D(9,8,19,18)         -165.1412         estimate D2E/DX2                !
 ! D110  D(8,9,10,5)           -18.5715         estimate D2E/DX2                !
 ! D111  D(8,9,10,16)          159.8154         estimate D2E/DX2                !
 ! D112  D(11,9,10,5)          156.3379         estimate D2E/DX2                !
 ! D113  D(11,9,10,16)         -25.2752         estimate D2E/DX2                !
 ! D114  D(8,9,11,12)          107.9642         estimate D2E/DX2                !
 ! D115  D(8,9,11,13)          -71.7193         estimate D2E/DX2                !
 ! D116  D(10,9,11,12)         -66.8581         estimate D2E/DX2                !
 ! D117  D(10,9,11,13)         113.4584         estimate D2E/DX2                !
 ! D118  D(9,11,13,14)          -8.6448         estimate D2E/DX2                !
 ! D119  D(9,11,13,15)         116.7508         estimate D2E/DX2                !
 ! D120  D(9,11,13,36)        -128.4344         estimate D2E/DX2                !
 ! D121  D(12,11,13,14)        171.6811         estimate D2E/DX2                !
 ! D122  D(12,11,13,15)        -62.9233         estimate D2E/DX2                !
 ! D123  D(12,11,13,36)         51.8915         estimate D2E/DX2                !
 ! D124  D(11,13,14,37)         51.4991         estimate D2E/DX2                !
 ! D125  D(11,13,14,38)        168.0847         estimate D2E/DX2                !
 ! D126  D(11,13,14,62)        -72.9479         estimate D2E/DX2                !
 ! D127  D(15,13,14,37)        -73.1441         estimate D2E/DX2                !
 ! D128  D(15,13,14,38)         43.4415         estimate D2E/DX2                !
 ! D129  D(15,13,14,62)        162.4089         estimate D2E/DX2                !
 ! D130  D(36,13,14,37)        170.1557         estimate D2E/DX2                !
 ! D131  D(36,13,14,38)        -73.2587         estimate D2E/DX2                !
 ! D132  D(36,13,14,62)         45.7088         estimate D2E/DX2                !
 ! D133  D(11,13,15,39)        170.4853         estimate D2E/DX2                !
 ! D134  D(11,13,15,40)         50.8262         estimate D2E/DX2                !
 ! D135  D(11,13,15,41)        -69.3006         estimate D2E/DX2                !
 ! D136  D(14,13,15,39)        -59.4986         estimate D2E/DX2                !
 ! D137  D(14,13,15,40)       -179.1577         estimate D2E/DX2                !
 ! D138  D(14,13,15,41)         60.7156         estimate D2E/DX2                !
 ! D139  D(36,13,15,39)         57.1485         estimate D2E/DX2                !
 ! D140  D(36,13,15,40)        -62.5106         estimate D2E/DX2                !
 ! D141  D(36,13,15,41)        177.3627         estimate D2E/DX2                !
 ! D142  D(13,14,62,63)         66.4663         estimate D2E/DX2                !
 ! D143  D(13,14,62,64)        -54.9562         estimate D2E/DX2                !
 ! D144  D(13,14,62,65)       -174.1585         estimate D2E/DX2                !
 ! D145  D(37,14,62,63)        -59.14           estimate D2E/DX2                !
 ! D146  D(37,14,62,64)        179.4376         estimate D2E/DX2                !
 ! D147  D(37,14,62,65)         60.2352         estimate D2E/DX2                !
 ! D148  D(38,14,62,63)       -173.5157         estimate D2E/DX2                !
 ! D149  D(38,14,62,64)         65.0618         estimate D2E/DX2                !
 ! D150  D(38,14,62,65)        -54.1405         estimate D2E/DX2                !
 ! D151  D(7,17,18,19)         -32.6586         estimate D2E/DX2                !
 ! D152  D(7,17,18,28)          85.2099         estimate D2E/DX2                !
 ! D153  D(7,17,18,29)        -151.1761         estimate D2E/DX2                !
 ! D154  D(20,17,18,19)         77.0754         estimate D2E/DX2                !
 ! D155  D(20,17,18,28)       -165.0561         estimate D2E/DX2                !
 ! D156  D(20,17,18,29)        -41.4421         estimate D2E/DX2                !
 ! D157  D(30,17,18,19)       -154.8079         estimate D2E/DX2                !
 ! D158  D(30,17,18,28)        -36.9393         estimate D2E/DX2                !
 ! D159  D(30,17,18,29)         86.6746         estimate D2E/DX2                !
 ! D160  D(7,17,20,3)          -36.7744         estimate D2E/DX2                !
 ! D161  D(7,17,20,42)        -157.9455         estimate D2E/DX2                !
 ! D162  D(7,17,20,43)          82.8119         estimate D2E/DX2                !
 ! D163  D(18,17,20,3)        -146.9032         estimate D2E/DX2                !
 ! D164  D(18,17,20,42)         91.9257         estimate D2E/DX2                !
 ! D165  D(18,17,20,43)        -27.3169         estimate D2E/DX2                !
 ! D166  D(30,17,20,3)          84.291          estimate D2E/DX2                !
 ! D167  D(30,17,20,42)        -36.8802         estimate D2E/DX2                !
 ! D168  D(30,17,20,43)       -156.1228         estimate D2E/DX2                !
 ! D169  D(17,18,19,8)          16.3952         estimate D2E/DX2                !
 ! D170  D(28,18,19,8)        -104.6544         estimate D2E/DX2                !
 ! D171  D(29,18,19,8)         138.3666         estimate D2E/DX2                !
 ! D172  D(17,18,28,53)        -62.2914         estimate D2E/DX2                !
 ! D173  D(17,18,28,54)       -179.7147         estimate D2E/DX2                !
 ! D174  D(17,18,28,55)         59.9373         estimate D2E/DX2                !
 ! D175  D(19,18,28,53)         54.054          estimate D2E/DX2                !
 ! D176  D(19,18,28,54)        -63.3693         estimate D2E/DX2                !
 ! D177  D(19,18,28,55)        176.2827         estimate D2E/DX2                !
 ! D178  D(29,18,28,53)        171.1458         estimate D2E/DX2                !
 ! D179  D(29,18,28,54)         53.7225         estimate D2E/DX2                !
 ! D180  D(29,18,28,55)        -66.6254         estimate D2E/DX2                !
 ! D181  D(17,18,29,56)        -57.5678         estimate D2E/DX2                !
 ! D182  D(17,18,29,57)       -178.093          estimate D2E/DX2                !
 ! D183  D(17,18,29,58)         64.7374         estimate D2E/DX2                !
 ! D184  D(19,18,29,56)       -174.4575         estimate D2E/DX2                !
 ! D185  D(19,18,29,57)         65.0174         estimate D2E/DX2                !
 ! D186  D(19,18,29,58)        -52.1523         estimate D2E/DX2                !
 ! D187  D(28,18,29,56)         68.5979         estimate D2E/DX2                !
 ! D188  D(28,18,29,57)        -51.9272         estimate D2E/DX2                !
 ! D189  D(28,18,29,58)       -169.0969         estimate D2E/DX2                !
 ! D190  D(5,22,23,24)          34.7822         estimate D2E/DX2                !
 ! D191  D(5,22,23,25)         157.6659         estimate D2E/DX2                !
 ! D192  D(5,22,23,47)         -80.0627         estimate D2E/DX2                !
 ! D193  D(45,22,23,24)        157.0076         estimate D2E/DX2                !
 ! D194  D(45,22,23,25)        -80.1088         estimate D2E/DX2                !
 ! D195  D(45,22,23,47)         42.1627         estimate D2E/DX2                !
 ! D196  D(46,22,23,24)        -83.5903         estimate D2E/DX2                !
 ! D197  D(46,22,23,25)         39.2934         estimate D2E/DX2                !
 ! D198  D(46,22,23,47)        161.5648         estimate D2E/DX2                !
 ! D199  D(22,23,24,4)         -19.557          estimate D2E/DX2                !
 ! D200  D(25,23,24,4)        -144.3529         estimate D2E/DX2                !
 ! D201  D(47,23,24,4)          97.8288         estimate D2E/DX2                !
 ! D202  D(22,23,25,26)         55.8021         estimate D2E/DX2                !
 ! D203  D(22,23,25,27)       -126.579          estimate D2E/DX2                !
 ! D204  D(24,23,25,26)        175.2075         estimate D2E/DX2                !
 ! D205  D(24,23,25,27)         -7.1737         estimate D2E/DX2                !
 ! D206  D(47,23,25,26)        -67.7622         estimate D2E/DX2                !
 ! D207  D(47,23,25,27)        109.8567         estimate D2E/DX2                !
 ! D208  D(23,25,26,48)        -66.4562         estimate D2E/DX2                !
 ! D209  D(23,25,26,49)         53.7718         estimate D2E/DX2                !
 ! D210  D(23,25,26,50)        173.4867         estimate D2E/DX2                !
 ! D211  D(27,25,26,48)        115.822          estimate D2E/DX2                !
 ! D212  D(27,25,26,49)       -123.9499         estimate D2E/DX2                !
 ! D213  D(27,25,26,50)         -4.2351         estimate D2E/DX2                !
 ! D214  D(23,25,27,51)         -0.2194         estimate D2E/DX2                !
 ! D215  D(23,25,27,52)       -178.9116         estimate D2E/DX2                !
 ! D216  D(26,25,27,51)        177.2999         estimate D2E/DX2                !
 ! D217  D(26,25,27,52)         -1.3923         estimate D2E/DX2                !
 --------------------------------------------------------------------------------
 Trust Radius=3.00D-01 FncErr=1.00D-07 GrdErr=1.00D-06
 Number of steps in this run=    390 maximum allowed number of steps=    390.
 GradGradGradGradGradGradGradGradGradGradGradGradGradGradGradGradGradGrad

 Stoichiometry    C26H34O5
 Framework group  C1[X(C26H34O5)]
 Deg. of freedom   189
 Full point group                 C1      NOp   1
 Largest Abelian subgroup         C1      NOp   1
 Largest concise Abelian subgroup C1      NOp   1
                         Standard orientation:                         
 ---------------------------------------------------------------------
 Center     Atomic      Atomic             Coordinates (Angstroms)
 Number     Number       Type             X           Y           Z
 ---------------------------------------------------------------------
      1          6           0        1.503245    1.516494   -2.838841
      2          6           0        1.253389    2.451175   -1.910137
      3          6           0        1.297626    2.135597   -0.434191
      4          6           0        1.341109    0.626998   -0.055964
      5          6           0        1.293221   -0.414898   -1.185318
      6          6           0        1.864946    0.102580   -2.521704
      7          6           0        0.204570    0.442901    0.969403
      8          6           0       -1.128478    0.112575    0.392308
      9          6           0       -1.285445   -0.575747   -0.742166
     10          6           0       -0.080328   -1.044802   -1.463428
     11          6           0       -2.632762   -0.765865   -1.324136
     12          8           0       -2.910245   -0.139559   -2.352015
     13          6           0       -3.658455   -1.702086   -0.674158
     14          6           0       -3.184503   -2.594987    0.484852
     15          6           0       -4.859805   -0.862827   -0.225985
     16          8           0       -0.190133   -1.971067   -2.270792
     17          6           0       -0.102878    1.804250    1.553706
     18          6           0       -1.570399    1.654160    2.005111
     19          8           0       -2.178066    0.743794    1.053433
     20          6           0        0.106770    2.726358    0.341848
     21          8           0        0.522109   -0.522626    1.956824
     22          6           0        2.196113   -1.519256   -0.628059
     23          6           0        3.269159   -0.743107    0.118629
     24          8           0        2.594309    0.402404    0.666945
     25          6           0        3.984791   -1.533597    1.192803
     26          6           0        4.630292   -2.816764    0.738742
     27          6           0        4.104972   -1.133199    2.470982
     28          6           0       -1.705084    1.039109    3.407385
     29          6           0       -2.356447    2.969854    1.983132
     30          1           0        0.561536    2.083109    2.379465
     31          1           0        2.205446    2.617354   -0.041738
     32          6           0        1.005973    3.882631   -2.307611
     33          1           0        1.507389    1.786489   -3.893725
     34          1           0        2.959772    0.039776   -2.543299
     35          1           0        1.524646   -0.526287   -3.354072
     36          1           0       -3.999748   -2.364033   -1.482021
     37          1           0       -2.670194   -2.015595    1.257726
     38          1           0       -4.062869   -3.036339    0.973599
     39          1           0       -5.687352   -1.506708    0.090228
     40          1           0       -5.227876   -0.226961   -1.038469
     41          1           0       -4.601557   -0.209471    0.613236
     42          1           0        0.305268    3.754931    0.663897
     43          1           0       -0.780859    2.756745   -0.301694
     44          1           0        1.468112   -0.387843    2.164783
     45          1           0        2.618053   -2.166892   -1.405133
     46          1           0        1.635540   -2.167812    0.058838
     47          1           0        4.022518   -0.361111   -0.580981
     48          1           0        3.871786   -3.541653    0.427256
     49          1           0        5.299947   -2.625801   -0.106217
     50          1           0        5.225648   -3.282708    1.531325
     51          1           0        3.690320   -0.194404    2.822975
     52          1           0        4.643672   -1.727622    3.203185
     53          1           0       -1.302141    0.024361    3.461538
     54          1           0       -2.761438    0.945728    3.686486
     55          1           0       -1.203909    1.654937    4.161139
     56          1           0       -1.881369    3.728744    2.612887
     57          1           0       -3.380399    2.814959    2.343691
     58          1           0       -2.465620    3.368157    0.969786
     59          1           0        1.146155    4.041394   -3.382324
     60          1           0       -0.016685    4.184356   -2.062145
     61          1           0        1.702306    4.546474   -1.784914
     62          6           0       -2.297310   -3.749414    0.038883
     63          1           0       -1.342258   -3.403249   -0.358704
     64          1           0       -2.792872   -4.352431   -0.728563
     65          1           0       -2.080459   -4.402960    0.890283
 ---------------------------------------------------------------------
 Rotational constants (GHZ):      0.1954236      0.1374777      0.1274733
 Standard basis: 6-31G(d) (6D, 7F)
 There are   533 symmetry adapted basis functions of A   symmetry.
 Integral buffers will be    131072 words long.
 Raffenetti 2 integral format.
 Two-electron integral symmetry is turned on.
   533 basis functions,  1004 primitive gaussians,   533 cartesian basis functions
   115 alpha electrons      115 beta electrons
       nuclear repulsion energy      3559.7768638454 Hartrees.
 NAtoms=   65 NActive=   65 NUniq=   65 SFac= 1.00D+00 NAtFMM=   50 NAOKFM=T Big=T
 One-electron integrals computed using PRISM.
 NBasis=   533 RedAO= T  NBF=   533
 NBsUse=   533 1.00D-06 NBFU=   533
 Harris functional with IExCor=  402 diagonalized for initial guess.
 ExpMin= 1.61D-01 ExpMax= 5.48D+03 ExpMxC= 8.25D+02 IAcc=1 IRadAn=         1 AccDes= 0.00D+00
 HarFok:  IExCor=  402 AccDes= 0.00D+00 IRadAn=         1 IDoV= 1
 ScaDFX=  1.000000  1.000000  1.000000  1.000000
 FoFCou: FMM=F IPFlag=           0 FMFlag=      100000 FMFlg1=        2001
         NFxFlg=           0 DoJE=T BraDBF=F KetDBF=T FulRan=T
         Omega=  0.000000  0.000000  1.000000  0.000000  0.000000 ICntrl=     500 IOpCl=  0
         NMat0=    1 NMatS0=    1 NMatT0=    0 NMatD0=    1 NMtDS0=    0 NMtDT0=    0
         I1Cent=           4 NGrid=           0.
 Petite list used in FoFCou.
 Initial guess orbital symmetries:
       Occupied  (A) (A) (A) (A) (A) (A) (A) (A) (A) (A) (A) (A)
                 (A) (A) (A) (A) (A) (A) (A) (A) (A) (A) (A) (A)
                 (A) (A) (A) (A) (A) (A) (A) (A) (A) (A) (A) (A)
                 (A) (A) (A) (A) (A) (A) (A) (A) (A) (A) (A) (A)
                 (A) (A) (A) (A) (A) (A) (A) (A) (A) (A) (A) (A)
                 (A) (A) (A) (A) (A) (A) (A) (A) (A) (A) (A) (A)
                 (A) (A) (A) (A) (A) (A) (A) (A) (A) (A) (A) (A)
                 (A) (A) (A) (A) (A) (A) (A) (A) (A) (A) (A) (A)
                 (A) (A) (A) (A) (A) (A) (A) (A) (A) (A) (A) (A)
                 (A) (A) (A) (A) (A) (A) (A)
       Virtual   (A) (A) (A) (A) (A) (A) (A) (A) (A) (A) (A) (A)
                 (A) (A) (A) (A) (A) (A) (A) (A) (A) (A) (A) (A)
                 (A) (A) (A) (A) (A) (A) (A) (A) (A) (A) (A) (A)
                 (A) (A) (A) (A) (A) (A) (A) (A) (A) (A) (A) (A)
                 (A) (A) (A) (A) (A) (A) (A) (A) (A) (A) (A) (A)
                 (A) (A) (A) (A) (A) (A) (A) (A) (A) (A) (A) (A)
                 (A) (A) (A) (A) (A) (A) (A) (A) (A) (A) (A) (A)
                 (A) (A) (A) (A) (A) (A) (A) (A) (A) (A) (A) (A)
                 (A) (A) (A) (A) (A) (A) (A) (A) (A) (A) (A) (A)
                 (A) (A) (A) (A) (A) (A) (A) (A) (A) (A) (A) (A)
                 (A) (A) (A) (A) (A) (A) (A) (A) (A) (A) (A) (A)
                 (A) (A) (A) (A) (A) (A) (A) (A) (A) (A) (A) (A)
                 (A) (A) (A) (A) (A) (A) (A) (A) (A) (A) (A) (A)
                 (A) (A) (A) (A) (A) (A) (A) (A) (A) (A) (A) (A)
                 (A) (A) (A) (A) (A) (A) (A) (A) (A) (A) (A) (A)
                 (A) (A) (A) (A) (A) (A) (A) (A) (A) (A) (A) (A)
                 (A) (A) (A) (A) (A) (A) (A) (A) (A) (A) (A) (A)
                 (A) (A) (A) (A) (A) (A) (A) (A) (A) (A) (A) (A)
                 (A) (A) (A) (A) (A) (A) (A) (A) (A) (A) (A) (A)
                 (A) (A) (A) (A) (A) (A) (A) (A) (A) (A) (A) (A)
                 (A) (A) (A) (A) (A) (A) (A) (A) (A) (A) (A) (A)
                 (A) (A) (A) (A) (A) (A) (A) (A) (A) (A) (A) (A)
                 (A) (A) (A) (A) (A) (A) (A) (A) (A) (A) (A) (A)
                 (A) (A) (A) (A) (A) (A) (A) (A) (A) (A) (A) (A)
                 (A) (A) (A) (A) (A) (A) (A) (A) (A) (A) (A) (A)
                 (A) (A) (A) (A) (A) (A) (A) (A) (A) (A) (A) (A)
                 (A) (A) (A) (A) (A) (A) (A) (A) (A) (A) (A) (A)
                 (A) (A) (A) (A) (A) (A) (A) (A) (A) (A) (A) (A)
                 (A) (A) (A) (A) (A) (A) (A) (A) (A) (A) (A) (A)
                 (A) (A) (A) (A) (A) (A) (A) (A) (A) (A) (A) (A)
                 (A) (A) (A) (A) (A) (A) (A) (A) (A) (A) (A) (A)
                 (A) (A) (A) (A) (A) (A) (A) (A) (A) (A) (A) (A)
                 (A) (A) (A) (A) (A) (A) (A) (A) (A) (A) (A) (A)
                 (A) (A) (A) (A) (A) (A) (A) (A) (A) (A) (A) (A)
                 (A) (A) (A) (A) (A) (A) (A) (A) (A) (A)
 The electronic state of the initial guess is 1-A.
 Requested convergence on RMS density matrix=1.00D-08 within 128 cycles.
 Requested convergence on MAX density matrix=1.00D-06.
 Requested convergence on             energy=1.00D-06.
 No special actions if energy rises.
 Integral accuracy reduced to 1.0D-05 until final iterations.
 Initial convergence to 1.0D-05 achieved.  Increase integral accuracy.
 SCF Done:  E(RB3LYP) =  -1387.30055534     A.U. after   16 cycles
             Convg  =    0.6080D-08             -V/T =  2.0091

 **********************************************************************

            Population analysis using the SCF density.

 **********************************************************************

 Orbital symmetries:
       Occupied  (A) (A) (A) (A) (A) (A) (A) (A) (A) (A) (A) (A)
                 (A) (A) (A) (A) (A) (A) (A) (A) (A) (A) (A) (A)
                 (A) (A) (A) (A) (A) (A) (A) (A) (A) (A) (A) (A)
                 (A) (A) (A) (A) (A) (A) (A) (A) (A) (A) (A) (A)
                 (A) (A) (A) (A) (A) (A) (A) (A) (A) (A) (A) (A)
                 (A) (A) (A) (A) (A) (A) (A) (A) (A) (A) (A) (A)
                 (A) (A) (A) (A) (A) (A) (A) (A) (A) (A) (A) (A)
                 (A) (A) (A) (A) (A) (A) (A) (A) (A) (A) (A) (A)
                 (A) (A) (A) (A) (A) (A) (A) (A) (A) (A) (A) (A)
                 (A) (A) (A) (A) (A) (A) (A)
       Virtual   (A) (A) (A) (A) (A) (A) (A) (A) (A) (A) (A) (A)
                 (A) (A) (A) (A) (A) (A) (A) (A) (A) (A) (A) (A)
                 (A) (A) (A) (A) (A) (A) (A) (A) (A) (A) (A) (A)
                 (A) (A) (A) (A) (A) (A) (A) (A) (A) (A) (A) (A)
                 (A) (A) (A) (A) (A) (A) (A) (A) (A) (A) (A) (A)
                 (A) (A) (A) (A) (A) (A) (A) (A) (A) (A) (A) (A)
                 (A) (A) (A) (A) (A) (A) (A) (A) (A) (A) (A) (A)
                 (A) (A) (A) (A) (A) (A) (A) (A) (A) (A) (A) (A)
                 (A) (A) (A) (A) (A) (A) (A) (A) (A) (A) (A) (A)
                 (A) (A) (A) (A) (A) (A) (A) (A) (A) (A) (A) (A)
                 (A) (A) (A) (A) (A) (A) (A) (A) (A) (A) (A) (A)
                 (A) (A) (A) (A) (A) (A) (A) (A) (A) (A) (A) (A)
                 (A) (A) (A) (A) (A) (A) (A) (A) (A) (A) (A) (A)
                 (A) (A) (A) (A) (A) (A) (A) (A) (A) (A) (A) (A)
                 (A) (A) (A) (A) (A) (A) (A) (A) (A) (A) (A) (A)
                 (A) (A) (A) (A) (A) (A) (A) (A) (A) (A) (A) (A)
                 (A) (A) (A) (A) (A) (A) (A) (A) (A) (A) (A) (A)
                 (A) (A) (A) (A) (A) (A) (A) (A) (A) (A) (A) (A)
                 (A) (A) (A) (A) (A) (A) (A) (A) (A) (A) (A) (A)
                 (A) (A) (A) (A) (A) (A) (A) (A) (A) (A) (A) (A)
                 (A) (A) (A) (A) (A) (A) (A) (A) (A) (A) (A) (A)
                 (A) (A) (A) (A) (A) (A) (A) (A) (A) (A) (A) (A)
                 (A) (A) (A) (A) (A) (A) (A) (A) (A) (A) (A) (A)
                 (A) (A) (A) (A) (A) (A) (A) (A) (A) (A) (A) (A)
                 (A) (A) (A) (A) (A) (A) (A) (A) (A) (A) (A) (A)
                 (A) (A) (A) (A) (A) (A) (A) (A) (A) (A) (A) (A)
                 (A) (A) (A) (A) (A) (A) (A) (A) (A) (A) (A) (A)
                 (A) (A) (A) (A) (A) (A) (A) (A) (A) (A) (A) (A)
                 (A) (A) (A) (A) (A) (A) (A) (A) (A) (A) (A) (A)
                 (A) (A) (A) (A) (A) (A) (A) (A) (A) (A) (A) (A)
                 (A) (A) (A) (A) (A) (A) (A) (A) (A) (A) (A) (A)
                 (A) (A) (A) (A) (A) (A) (A) (A) (A) (A) (A) (A)
                 (A) (A) (A) (A) (A) (A) (A) (A) (A) (A) (A) (A)
                 (A) (A) (A) (A) (A) (A) (A) (A) (A) (A) (A) (A)
                 (A) (A) (A) (A) (A) (A) (A) (A) (A) (A)
 The electronic state is 1-A.
 Alpha  occ. eigenvalues --  -19.19811 -19.16832 -19.15298 -19.13411 -19.12975
 Alpha  occ. eigenvalues --  -10.27950 -10.27020 -10.26860 -10.26197 -10.25982
 Alpha  occ. eigenvalues --  -10.25527 -10.25217 -10.21692 -10.20762 -10.20196
 Alpha  occ. eigenvalues --  -10.20117 -10.19717 -10.19567 -10.19449 -10.19197
 Alpha  occ. eigenvalues --  -10.19185 -10.19126 -10.18715 -10.18608 -10.18336
 Alpha  occ. eigenvalues --  -10.18298 -10.17975 -10.17805 -10.17231 -10.16582
 Alpha  occ. eigenvalues --  -10.15935  -1.08648  -1.05999  -1.03243  -1.02346
 Alpha  occ. eigenvalues --   -1.01886  -0.87386  -0.84085  -0.82775  -0.81800
 Alpha  occ. eigenvalues --   -0.80456  -0.79803  -0.76942  -0.74462  -0.73687
 Alpha  occ. eigenvalues --   -0.72173  -0.71832  -0.69628  -0.69287  -0.68116
 Alpha  occ. eigenvalues --   -0.65100  -0.64349  -0.63148  -0.61758  -0.60915
 Alpha  occ. eigenvalues --   -0.59500  -0.59346  -0.57421  -0.55670  -0.53954
 Alpha  occ. eigenvalues --   -0.53386  -0.52372  -0.51088  -0.50577  -0.49176
 Alpha  occ. eigenvalues --   -0.48007  -0.47532  -0.46816  -0.46340  -0.45848
 Alpha  occ. eigenvalues --   -0.45106  -0.44684  -0.44040  -0.43712  -0.43128
 Alpha  occ. eigenvalues --   -0.42983  -0.42225  -0.42154  -0.41905  -0.41558
 Alpha  occ. eigenvalues --   -0.40960  -0.40784  -0.40484  -0.40392  -0.39912
 Alpha  occ. eigenvalues --   -0.39275  -0.39024  -0.38712  -0.38418  -0.38103
 Alpha  occ. eigenvalues --   -0.37697  -0.37247  -0.37101  -0.37035  -0.36606
 Alpha  occ. eigenvalues --   -0.36000  -0.35445  -0.34735  -0.34462  -0.34352
 Alpha  occ. eigenvalues --   -0.33932  -0.33653  -0.33004  -0.32488  -0.32217
 Alpha  occ. eigenvalues --   -0.31604  -0.31314  -0.31153  -0.28123  -0.26700
 Alpha  occ. eigenvalues --   -0.25649  -0.25081  -0.24660  -0.23352  -0.23200
 Alpha virt. eigenvalues --   -0.05252  -0.02195   0.01070   0.02340   0.04028
 Alpha virt. eigenvalues --    0.07093   0.07992   0.08801   0.09015   0.10075
 Alpha virt. eigenvalues --    0.10321   0.11024   0.11394   0.11738   0.12224
 Alpha virt. eigenvalues --    0.12821   0.13109   0.13404   0.13684   0.13936
 Alpha virt. eigenvalues --    0.14194   0.14527   0.15064   0.15183   0.15540
 Alpha virt. eigenvalues --    0.16107   0.16293   0.16643   0.17087   0.17603
 Alpha virt. eigenvalues --    0.17888   0.18258   0.18391   0.18822   0.18954
 Alpha virt. eigenvalues --    0.19324   0.19523   0.19626   0.19962   0.20464
 Alpha virt. eigenvalues --    0.20637   0.21118   0.21177   0.21640   0.22602
 Alpha virt. eigenvalues --    0.22996   0.24003   0.24114   0.24376   0.24835
 Alpha virt. eigenvalues --    0.25139   0.25690   0.25817   0.26495   0.26842
 Alpha virt. eigenvalues --    0.27155   0.28124   0.28213   0.28437   0.30008
 Alpha virt. eigenvalues --    0.31054   0.32060   0.32329   0.33154   0.34508
 Alpha virt. eigenvalues --    0.35104   0.35980   0.36973   0.39271   0.40789
 Alpha virt. eigenvalues --    0.42527   0.45469   0.46824   0.48091   0.48504
 Alpha virt. eigenvalues --    0.49524   0.50050   0.51364   0.51680   0.51845
 Alpha virt. eigenvalues --    0.52424   0.52485   0.52983   0.53472   0.53787
 Alpha virt. eigenvalues --    0.54125   0.54559   0.55337   0.55482   0.56270
 Alpha virt. eigenvalues --    0.57234   0.57509   0.57976   0.58411   0.59754
 Alpha virt. eigenvalues --    0.60073   0.61180   0.61750   0.61825   0.61856
 Alpha virt. eigenvalues --    0.62191   0.62820   0.63238   0.63579   0.64472
 Alpha virt. eigenvalues --    0.65181   0.65369   0.66072   0.66932   0.67325
 Alpha virt. eigenvalues --    0.68014   0.68305   0.69090   0.69432   0.70002
 Alpha virt. eigenvalues --    0.70435   0.70452   0.72049   0.72964   0.74178
 Alpha virt. eigenvalues --    0.74568   0.75252   0.75461   0.75766   0.76471
 Alpha virt. eigenvalues --    0.77072   0.77539   0.78926   0.79039   0.80239
 Alpha virt. eigenvalues --    0.80514   0.81043   0.81149   0.81660   0.82074
 Alpha virt. eigenvalues --    0.82530   0.83039   0.83813   0.84810   0.85155
 Alpha virt. eigenvalues --    0.85374   0.85911   0.86034   0.86386   0.86942
 Alpha virt. eigenvalues --    0.87748   0.87950   0.88374   0.88921   0.89018
 Alpha virt. eigenvalues --    0.89508   0.89701   0.89847   0.90242   0.90620
 Alpha virt. eigenvalues --    0.91087   0.91309   0.91827   0.92155   0.92694
 Alpha virt. eigenvalues --    0.92839   0.93426   0.94267   0.94601   0.95027
 Alpha virt. eigenvalues --    0.95178   0.95806   0.96049   0.96094   0.96784
 Alpha virt. eigenvalues --    0.97361   0.98374   0.98441   0.98950   1.00637
 Alpha virt. eigenvalues --    1.01507   1.01830   1.02053   1.02841   1.04011
 Alpha virt. eigenvalues --    1.05283   1.05808   1.06263   1.06720   1.07980
 Alpha virt. eigenvalues --    1.09162   1.10225   1.10259   1.11574   1.11740
 Alpha virt. eigenvalues --    1.13182   1.13810   1.15304   1.16906   1.17681
 Alpha virt. eigenvalues --    1.18539   1.19124   1.19267   1.20352   1.21934
 Alpha virt. eigenvalues --    1.23364   1.24125   1.24572   1.25825   1.26547
 Alpha virt. eigenvalues --    1.27323   1.29420   1.30080   1.31326   1.32174
 Alpha virt. eigenvalues --    1.33543   1.36524   1.37497   1.38092   1.40046
 Alpha virt. eigenvalues --    1.41538   1.42596   1.43345   1.45491   1.46333
 Alpha virt. eigenvalues --    1.47287   1.48509   1.49557   1.51210   1.51553
 Alpha virt. eigenvalues --    1.53734   1.54940   1.55756   1.56709   1.59804
 Alpha virt. eigenvalues --    1.60498   1.61049   1.61757   1.62713   1.64666
 Alpha virt. eigenvalues --    1.65437   1.66749   1.67087   1.68007   1.70426
 Alpha virt. eigenvalues --    1.70956   1.72868   1.72903   1.73386   1.74202
 Alpha virt. eigenvalues --    1.75048   1.75445   1.76342   1.77877   1.78454
 Alpha virt. eigenvalues --    1.78661   1.79435   1.81297   1.81941   1.82396
 Alpha virt. eigenvalues --    1.82926   1.83467   1.83727   1.84722   1.85313
 Alpha virt. eigenvalues --    1.86256   1.87192   1.87548   1.87870   1.88778
 Alpha virt. eigenvalues --    1.89249   1.89417   1.90629   1.90909   1.91402
 Alpha virt. eigenvalues --    1.92232   1.92523   1.93364   1.94035   1.94501
 Alpha virt. eigenvalues --    1.95886   1.96512   1.96922   1.97764   1.98167
 Alpha virt. eigenvalues --    1.98772   1.98986   1.99857   2.01355   2.01728
 Alpha virt. eigenvalues --    2.02885   2.03237   2.04116   2.05567   2.05925
 Alpha virt. eigenvalues --    2.06659   2.06824   2.08070   2.08284   2.10309
 Alpha virt. eigenvalues --    2.10706   2.11427   2.12174   2.13308   2.13806
 Alpha virt. eigenvalues --    2.14405   2.15872   2.16900   2.17232   2.18220
 Alpha virt. eigenvalues --    2.20210   2.20589   2.21653   2.22729   2.23198
 Alpha virt. eigenvalues --    2.24205   2.24736   2.25616   2.26057   2.26872
 Alpha virt. eigenvalues --    2.28157   2.28424   2.29425   2.31626   2.32577
 Alpha virt. eigenvalues --    2.32859   2.33106   2.33929   2.34269   2.35375
 Alpha virt. eigenvalues --    2.35859   2.36829   2.37434   2.38547   2.39214
 Alpha virt. eigenvalues --    2.39515   2.41252   2.41308   2.42975   2.44012
 Alpha virt. eigenvalues --    2.45497   2.45633   2.46779   2.48507   2.49933
 Alpha virt. eigenvalues --    2.50244   2.50700   2.51944   2.52605   2.54424
 Alpha virt. eigenvalues --    2.55760   2.56641   2.58370   2.58462   2.60418
 Alpha virt. eigenvalues --    2.61175   2.62642   2.63327   2.64589   2.66204
 Alpha virt. eigenvalues --    2.66528   2.68409   2.69183   2.69896   2.70853
 Alpha virt. eigenvalues --    2.71758   2.72609   2.74565   2.76410   2.78871
 Alpha virt. eigenvalues --    2.79847   2.80771   2.81341   2.84421   2.85387
 Alpha virt. eigenvalues --    2.86793   2.92104   2.92718   2.94975   2.97509
 Alpha virt. eigenvalues --    2.97950   2.99570   3.00143   3.02525   3.03416
 Alpha virt. eigenvalues --    3.05240   3.07517   3.13080   3.18137   3.21208
 Alpha virt. eigenvalues --    3.22493   3.29220   4.03181   4.07379   4.11038
 Alpha virt. eigenvalues --    4.13833   4.15681   4.17378   4.19570   4.20787
 Alpha virt. eigenvalues --    4.22746   4.25286   4.25759   4.28059   4.30364
 Alpha virt. eigenvalues --    4.31624   4.35701   4.37852   4.39239   4.44224
 Alpha virt. eigenvalues --    4.47042   4.49904   4.52268   4.55009   4.59752
 Alpha virt. eigenvalues --    4.60439   4.64468   4.71457   4.73836   4.81606
 Alpha virt. eigenvalues --    4.91828   5.00630   5.19347
          Condensed to atoms (all electrons):
 Mulliken atomic charges:
              1
     1  C   -0.188560
     2  C    0.190682
     3  C   -0.187392
     4  C    0.320540
     5  C   -0.044094
     6  C   -0.333580
     7  C    0.207014
     8  C    0.402017
     9  C   -0.082829
    10  C    0.432890
    11  C    0.419872
    12  O   -0.457956
    13  C   -0.144406
    14  C   -0.269705
    15  C   -0.460704
    16  O   -0.503579
    17  C   -0.160503
    18  C    0.311512
    19  O   -0.544558
    20  C   -0.320349
    21  O   -0.664251
    22  C   -0.324110
    23  C    0.108772
    24  O   -0.589679
    25  C    0.189240
    26  C   -0.519175
    27  C   -0.404310
    28  C   -0.462959
    29  C   -0.464112
    30  H    0.143594
    31  H    0.164614
    32  C   -0.517254
    33  H    0.124765
    34  H    0.150214
    35  H    0.182101
    36  H    0.161273
    37  H    0.149271
    38  H    0.131630
    39  H    0.140345
    40  H    0.163440
    41  H    0.158106
    42  H    0.148050
    43  H    0.170176
    44  H    0.414137
    45  H    0.168754
    46  H    0.174471
    47  H    0.145186
    48  H    0.169402
    49  H    0.156662
    50  H    0.161258
    51  H    0.144554
    52  H    0.140125
    53  H    0.186090
    54  H    0.148375
    55  H    0.140450
    56  H    0.150726
    57  H    0.157574
    58  H    0.161293
    59  H    0.158815
    60  H    0.160902
    61  H    0.148325
    62  C   -0.455920
    63  H    0.165051
    64  H    0.141792
    65  H    0.135927
 Sum of Mulliken atomic charges =   0.00000
 Mulliken charges with hydrogens summed into heavy atoms:
              1
     1  C   -0.063795
     2  C    0.190682
     3  C   -0.022778
     4  C    0.320540
     5  C   -0.044094
     6  C   -0.001265
     7  C    0.207014
     8  C    0.402017
     9  C   -0.082829
    10  C    0.432890
    11  C    0.419872
    12  O   -0.457956
    13  C    0.016867
    14  C    0.011196
    15  C    0.001186
    16  O   -0.503579
    17  C   -0.016909
    18  C    0.311512
    19  O   -0.544558
    20  C   -0.002123
    21  O   -0.250114
    22  C    0.019114
    23  C    0.253958
    24  O   -0.589679
    25  C    0.189240
    26  C   -0.031853
    27  C   -0.119631
    28  C    0.011955
    29  C    0.005481
    32  C   -0.049213
    62  C   -0.013150
 Sum of Mulliken charges with hydrogens summed into heavy atoms =   0.00000
 Electronic spatial extent (au):  <R**2>=          10803.5787
 Charge=              0.0000 electrons
 Dipole moment (field-independent basis, Debye):
    X=              3.2374    Y=              2.2997    Z=              3.4044  Tot=              5.2306
 Quadrupole moment (field-independent basis, Debye-Ang):
   XX=           -180.0318   YY=           -177.3921   ZZ=           -190.0577
   XY=             -3.7266   XZ=            -10.3794   YZ=             -0.6040
 Traceless Quadrupole moment (field-independent basis, Debye-Ang):
   XX=              2.4621   YY=              5.1018   ZZ=             -7.5638
   XY=             -3.7266   XZ=            -10.3794   YZ=             -0.6040
 Octapole moment (field-independent basis, Debye-Ang**2):
  XXX=             12.5087  YYY=             22.4920  ZZZ=             31.4827  XYY=              1.6397
  XXY=            -43.3306  XXZ=             17.9858  XZZ=             31.1123  YZZ=             25.4859
  YYZ=             16.7740  XYZ=            -10.5379
 Hexadecapole moment (field-independent basis, Debye-Ang**3):
 XXXX=          -6959.1021 YYYY=          -4212.4886 ZZZZ=          -3216.3957 XXXY=            -74.8878
 XXXZ=            -37.5381 YYYX=            -17.5314 YYYZ=             -2.9339 ZZZX=            -41.6273
 ZZZY=            -11.8821 XXYY=          -1776.2023 XXZZ=          -1722.7550 YYZZ=          -1239.9161
 XXYZ=              6.2471 YYXZ=             22.7144 ZZXY=            -18.7413
 N-N= 3.559776863845D+03 E-N=-1.034577311624D+04  KE= 1.374765881385D+03
 Calling FoFJK, ICntrl=      2127 FMM=T ISym2X=0 I1Cent= 0 IOpClX= 0 NMat=1 NMatS=1 NMatT=0.
 ***** Axes restored to original set *****
 -------------------------------------------------------------------
 Center     Atomic                   Forces (Hartrees/Bohr)
 Number     Number              X              Y              Z
 -------------------------------------------------------------------
      1        6           0.009634723   -0.000535166    0.000310268
      2        6          -0.012766427   -0.005415143    0.002129818
      3        6          -0.000623484   -0.007888677   -0.000654491
      4        6           0.003800612   -0.004255905    0.010915913
      5        6          -0.011453609   -0.000919981    0.000571797
      6        6          -0.004751129   -0.010934098   -0.000863224
      7        6           0.011916673    0.018992981    0.008425808
      8        6           0.008380934   -0.012331955   -0.014447104
      9        6           0.001069140    0.005425919    0.009704376
     10        6          -0.010918691    0.001257131   -0.020908188
     11        6          -0.016670395   -0.026514489   -0.011798180
     12        8           0.003757631    0.024171835   -0.000674683
     13        6           0.005375021    0.002608791   -0.004901349
     14        6          -0.004678465    0.001679442    0.002043248
     15        6           0.005636158   -0.007664514   -0.007432750
     16        8           0.011522859   -0.003963927    0.010721906
     17        6           0.007948328   -0.010821203   -0.005574720
     18        6           0.032495923    0.007282284   -0.000365353
     19        8          -0.026526590    0.003765563    0.025613179
     20        6           0.011569789   -0.004898558   -0.000033902
     21        8          -0.006143741    0.006346104   -0.002357059
     22        6          -0.010505515    0.011064542    0.000753429
     23        6           0.007669874    0.009042765    0.003892506
     24        8          -0.003741879   -0.003707683   -0.008784031
     25        6           0.009608206    0.011297658    0.006366330
     26        6          -0.000165503   -0.000196997   -0.000000956
     27        6          -0.003415287   -0.009202298   -0.003701513
     28        6          -0.003154707    0.007656968   -0.005042535
     29        6          -0.003776026   -0.006430448   -0.009013272
     30        1          -0.001688246    0.001081076   -0.001712798
     31        1          -0.003330856    0.006102877   -0.000071732
     32        6          -0.001132857    0.000962359   -0.001009246
     33        1           0.001427471   -0.000637631   -0.000132307
     34        1          -0.000655884    0.005627857    0.001974630
     35        1           0.000403480    0.007448075   -0.001212976
     36        1          -0.000599983   -0.002444044    0.001024391
     37        1           0.002298330   -0.002005816    0.000173317
     38        1           0.002335136   -0.003503042   -0.001666618
     39        1          -0.000737386    0.001263841    0.000172364
     40        1          -0.001044778    0.000311038    0.001098151
     41        1          -0.000271407    0.000951162    0.001093370
     42        1          -0.001316417   -0.001991487   -0.001437838
     43        1           0.000027932    0.002815136   -0.000222884
     44        1          -0.002083946   -0.002202458   -0.001402058
     45        1           0.001508970   -0.002768413   -0.001828003
     46        1           0.002222709   -0.000903674    0.002706398
     47        1          -0.003827720   -0.001219625    0.002458205
     48        1          -0.003989989   -0.001036740   -0.000101073
     49        1          -0.004166407   -0.000864754   -0.000432303
     50        1           0.001961640   -0.001319225   -0.000708159
     51        1           0.000486044   -0.000946966   -0.000164486
     52        1          -0.001128119   -0.000000635   -0.000265142
     53        1          -0.001104329   -0.002595575    0.005761977
     54        1           0.002200027   -0.003876436    0.000403414
     55        1           0.000425162   -0.000798421    0.000214249
     56        1          -0.000754564    0.001259208    0.000628916
     57        1           0.000712657    0.002808321    0.001419215
     58        1          -0.000227459    0.000091394    0.003763896
     59        1          -0.001116675    0.001853033   -0.000677051
     60        1           0.004284043   -0.001733759    0.000237334
     61        1           0.004121487   -0.001128724    0.000178301
     62        6          -0.000811003    0.005479467    0.003486522
     63        1          -0.002678618   -0.001979188    0.000879117
     64        1          -0.001526412   -0.000425663    0.000100482
     65        1          -0.001316458    0.001416492    0.000375153
 -------------------------------------------------------------------
 Cartesian Forces:  Max     0.032495923 RMS     0.006879239

 GradGradGradGradGradGradGradGradGradGradGradGradGradGradGradGradGradGrad
 Berny optimization.
 Internal  Forces:  Max     0.024211051 RMS     0.003557238
 Search for a local minimum.
 Step number   1 out of a maximum of  390
 All quantities printed in internal units (Hartrees-Bohrs-Radians)
 Mixed Optimization -- RFO/linear search
 Second derivative matrix not updated -- first step.
 ITU=  0
     Eigenvalues ---    0.00264   0.00275   0.00325   0.00332   0.00336
     Eigenvalues ---    0.00431   0.00465   0.00550   0.00587   0.00598
     Eigenvalues ---    0.00600   0.00681   0.00686   0.00701   0.00758
     Eigenvalues ---    0.01032   0.01085   0.01234   0.01253   0.01414
     Eigenvalues ---    0.01466   0.01631   0.01712   0.01820   0.01923
     Eigenvalues ---    0.02513   0.02819   0.02820   0.03025   0.03124
     Eigenvalues ---    0.03395   0.03432   0.03599   0.03852   0.04037
     Eigenvalues ---    0.04104   0.04314   0.04376   0.04627   0.04739
     Eigenvalues ---    0.04815   0.04843   0.04952   0.05092   0.05240
     Eigenvalues ---    0.05303   0.05383   0.05430   0.05439   0.05461
     Eigenvalues ---    0.05490   0.05499   0.05504   0.05548   0.05637
     Eigenvalues ---    0.05709   0.05860   0.05923   0.06274   0.06623
     Eigenvalues ---    0.06702   0.06877   0.07104   0.07108   0.07189
     Eigenvalues ---    0.07247   0.07258   0.07355   0.07699   0.08385
     Eigenvalues ---    0.08458   0.08513   0.09015   0.09184   0.09861
     Eigenvalues ---    0.10096   0.10647   0.10951   0.11624   0.12344
     Eigenvalues ---    0.13148   0.14648   0.15224   0.15969   0.16000
     Eigenvalues ---    0.16000   0.16000   0.16000   0.16000   0.16000
     Eigenvalues ---    0.16000   0.16000   0.16000   0.16000   0.16000
     Eigenvalues ---    0.16000   0.16000   0.16000   0.16000   0.16000
     Eigenvalues ---    0.16000   0.16000   0.16000   0.16000   0.16000
     Eigenvalues ---    0.16121   0.16673   0.17242   0.18367   0.19029
     Eigenvalues ---    0.19757   0.21553   0.21904   0.22791   0.23537
     Eigenvalues ---    0.24468   0.24898   0.24933   0.24976   0.24987
     Eigenvalues ---    0.24989   0.25000   0.25000   0.25964   0.27271
     Eigenvalues ---    0.27406   0.27750   0.27841   0.28052   0.28336
     Eigenvalues ---    0.28704   0.28774   0.28777   0.29120   0.29168
     Eigenvalues ---    0.29197   0.30105   0.30506   0.30561   0.30996
     Eigenvalues ---    0.31711   0.31748   0.31876   0.33156   0.33670
     Eigenvalues ---    0.33818   0.33849   0.33925   0.33980   0.34034
     Eigenvalues ---    0.34039   0.34041   0.34062   0.34064   0.34124
     Eigenvalues ---    0.34135   0.34135   0.34194   0.34198   0.34204
     Eigenvalues ---    0.34221   0.34241   0.34250   0.34254   0.34265
     Eigenvalues ---    0.34284   0.34284   0.34301   0.34303   0.34318
     Eigenvalues ---    0.34323   0.34340   0.34449   0.34581   0.34711
     Eigenvalues ---    0.34941   0.35062   0.35265   0.35400   0.36409
     Eigenvalues ---    0.37434   0.42905   0.43629   0.51790   0.53409
     Eigenvalues ---    0.54622   0.56141   0.88942   0.89587
 RFO step:  Lambda=-2.22793630D-02 EMin= 2.64297404D-03
 Linear search not attempted -- first point.
 Iteration  1 RMS(Cart)=  0.05279915 RMS(Int)=  0.00074775
 Iteration  2 RMS(Cart)=  0.00120309 RMS(Int)=  0.00024417
 Iteration  3 RMS(Cart)=  0.00000068 RMS(Int)=  0.00024417
 Variable       Old X    -DE/DX   Delta X   Delta X   Delta X     New X
                                 (Linear)    (Quad)   (Total)
    R1        2.53431  -0.00253   0.00000  -0.00496  -0.00498   2.52933
    R2        2.82232   0.00850   0.00000   0.02546   0.02539   2.84770
    R3        2.05771  -0.00016   0.00000  -0.00044  -0.00044   2.05727
    R4        2.85340   0.00396   0.00000   0.00901   0.00906   2.86245
    R5        2.84607   0.00311   0.00000   0.00914   0.00914   2.85521
    R6        2.94022   0.00489   0.00000   0.01100   0.01094   2.95116
    R7        2.90881   0.01115   0.00000   0.03820   0.03819   2.94701
    R8        2.07891  -0.00088   0.00000  -0.00245  -0.00245   2.07646
    R9        2.90507   0.00895   0.00000   0.02926   0.02905   2.93412
   R10        2.91348   0.00652   0.00000   0.02169   0.02181   2.93529
   R11        2.76672  -0.00494   0.00000  -0.01309  -0.01310   2.75362
   R12        2.91568   0.00018   0.00000   0.00318   0.00310   2.91878
   R13        2.90352   0.00658   0.00000   0.01542   0.01534   2.91886
   R14        2.89403   0.01125   0.00000   0.03811   0.03811   2.93215
   R15        2.07272   0.00302   0.00000   0.00833   0.00833   2.08105
   R16        2.07364  -0.00133   0.00000  -0.00367  -0.00367   2.06997
   R17        2.81510   0.00969   0.00000   0.02101   0.02062   2.83572
   R18        2.85918   0.01601   0.00000   0.05628   0.05575   2.91493
   R19        2.67787   0.00415   0.00000   0.00919   0.00919   2.68705
   R20        2.52507   0.01282   0.00000   0.02204   0.02209   2.54716
   R21        2.63016  -0.01882   0.00000  -0.04462  -0.04441   2.58575
   R22        2.79816  -0.00117   0.00000  -0.00708  -0.00693   2.79123
   R23        2.79660   0.01910   0.00000   0.05190   0.05190   2.84850
   R24        2.33124  -0.01415   0.00000  -0.01541  -0.01541   2.31583
   R25        2.33424  -0.02421   0.00000  -0.02656  -0.02656   2.30769
   R26        2.89753   0.00012   0.00000   0.00039   0.00039   2.89793
   R27        2.90625   0.00123   0.00000   0.00399   0.00399   2.91024
   R28        2.89594   0.00721   0.00000   0.02294   0.02294   2.91889
   R29        2.07637   0.00046   0.00000   0.00128   0.00128   2.07766
   R30        2.06797   0.00143   0.00000   0.00392   0.00392   2.07189
   R31        2.07456   0.00019   0.00000   0.00054   0.00054   2.07510
   R32        2.87754   0.00890   0.00000   0.02752   0.02752   2.90505
   R33        2.06958   0.00053   0.00000   0.00144   0.00144   2.07102
   R34        2.07003  -0.00048   0.00000  -0.00132  -0.00132   2.06871
   R35        2.06824   0.00036   0.00000   0.00098   0.00098   2.06922
   R36        2.91527  -0.00091   0.00000   0.00872   0.00899   2.92426
   R37        2.90480   0.00447   0.00000   0.01592   0.01599   2.92079
   R38        2.07103  -0.00163   0.00000  -0.00448  -0.00448   2.06655
[...]
     55          1           0        1.084335    2.322933   -4.050150
     56          1           0        1.814067    4.088368   -2.290000
     57          1           0        3.264164    3.091116   -2.076176
     58          1           0        2.290722    3.542489   -0.667908
     59          1           0       -1.200523    3.612840    3.824497
     60          1           0       -0.152257    3.999456    2.451640
     61          1           0       -1.884764    4.299131    2.338588
     62          6           0        2.491389   -3.857022    0.102134
     63          1           0        1.702975   -3.537235    0.791442
     64          1           0        3.219767   -4.433479    0.685946
     65          1           0        2.045773   -4.534868   -0.635192
 ---------------------------------------------------------------------
 Rotational constants (GHZ):      0.1880741      0.1386536      0.1277384

 **********************************************************************

            Population analysis using the SCF density.

 **********************************************************************

 Orbital symmetries:
       Occupied  (A) (A) (A) (A) (A) (A) (A) (A) (A) (A) (A) (A)
                 (A) (A) (A) (A) (A) (A) (A) (A) (A) (A) (A) (A)
                 (A) (A) (A) (A) (A) (A) (A) (A) (A) (A) (A) (A)
                 (A) (A) (A) (A) (A) (A) (A) (A) (A) (A) (A) (A)
                 (A) (A) (A) (A) (A) (A) (A) (A) (A) (A) (A) (A)
                 (A) (A) (A) (A) (A) (A) (A) (A) (A) (A) (A) (A)
                 (A) (A) (A) (A) (A) (A) (A) (A) (A) (A) (A) (A)
                 (A) (A) (A) (A) (A) (A) (A) (A) (A) (A) (A) (A)
                 (A) (A) (A) (A) (A) (A) (A) (A) (A) (A) (A) (A)
                 (A) (A) (A) (A) (A) (A) (A)
       Virtual   (A) (A) (A) (A) (A) (A) (A) (A) (A) (A) (A) (A)
                 (A) (A) (A) (A) (A) (A) (A) (A) (A) (A) (A) (A)
                 (A) (A) (A) (A) (A) (A) (A) (A) (A) (A) (A) (A)
                 (A) (A) (A) (A) (A) (A) (A) (A) (A) (A) (A) (A)
                 (A) (A) (A) (A) (A) (A) (A) (A) (A) (A) (A) (A)
                 (A) (A) (A) (A) (A) (A) (A) (A) (A) (A) (A) (A)
                 (A) (A) (A) (A) (A) (A) (A) (A) (A) (A) (A) (A)
                 (A) (A) (A) (A) (A) (A) (A) (A) (A) (A) (A) (A)
                 (A) (A) (A) (A) (A) (A) (A) (A) (A) (A) (A) (A)
                 (A) (A) (A) (A) (A) (A) (A) (A) (A) (A) (A) (A)
                 (A) (A) (A) (A) (A) (A) (A) (A) (A) (A) (A) (A)
                 (A) (A) (A) (A) (A) (A) (A) (A) (A) (A) (A) (A)
                 (A) (A) (A) (A) (A) (A) (A) (A) (A) (A) (A) (A)
                 (A) (A) (A) (A) (A) (A) (A) (A) (A) (A) (A) (A)
                 (A) (A) (A) (A) (A) (A) (A) (A) (A) (A) (A) (A)
                 (A) (A) (A) (A) (A) (A) (A) (A) (A) (A) (A) (A)
                 (A) (A) (A) (A) (A) (A) (A) (A) (A) (A) (A) (A)
                 (A) (A) (A) (A) (A) (A) (A) (A) (A) (A) (A) (A)
                 (A) (A) (A) (A) (A) (A) (A) (A) (A) (A) (A) (A)
                 (A) (A) (A) (A) (A) (A) (A) (A) (A) (A) (A) (A)
                 (A) (A) (A) (A) (A) (A) (A) (A) (A) (A) (A) (A)
                 (A) (A) (A) (A) (A) (A) (A) (A) (A) (A) (A) (A)
                 (A) (A) (A) (A) (A) (A) (A) (A) (A) (A) (A) (A)
                 (A) (A) (A) (A) (A) (A) (A) (A) (A) (A) (A) (A)
                 (A) (A) (A) (A) (A) (A) (A) (A) (A) (A) (A) (A)
                 (A) (A) (A) (A) (A) (A) (A) (A) (A) (A) (A) (A)
                 (A) (A) (A) (A) (A) (A) (A) (A) (A) (A) (A) (A)
                 (A) (A) (A) (A) (A) (A) (A) (A) (A) (A) (A) (A)
                 (A) (A) (A) (A) (A) (A) (A) (A) (A) (A) (A) (A)
                 (A) (A) (A) (A) (A) (A) (A) (A) (A) (A) (A) (A)
                 (A) (A) (A) (A) (A) (A) (A) (A) (A) (A) (A) (A)
                 (A) (A) (A) (A) (A) (A) (A) (A) (A) (A) (A) (A)
                 (A) (A) (A) (A) (A) (A) (A) (A) (A) (A) (A) (A)
                 (A) (A) (A) (A) (A) (A) (A) (A) (A) (A) (A) (A)
                 (A) (A) (A) (A) (A) (A) (A) (A) (A) (A)
 The electronic state is 1-A.
 Alpha  occ. eigenvalues --  -19.19663 -19.16632 -19.15812 -19.12701 -19.12622
 Alpha  occ. eigenvalues --  -10.27111 -10.27003 -10.26810 -10.26690 -10.25812
 Alpha  occ. eigenvalues --  -10.25718 -10.25260 -10.21259 -10.20906 -10.20668
 Alpha  occ. eigenvalues --  -10.20253 -10.19849 -10.19696 -10.19373 -10.19262
 Alpha  occ. eigenvalues --  -10.19218 -10.19152 -10.18745 -10.18430 -10.18341
 Alpha  occ. eigenvalues --  -10.18329 -10.18319 -10.17966 -10.17227 -10.16860
 Alpha  occ. eigenvalues --  -10.15961  -1.09047  -1.05996  -1.03248  -1.02570
 Alpha  occ. eigenvalues --   -1.02219  -0.86697  -0.83695  -0.82462  -0.81372
 Alpha  occ. eigenvalues --   -0.80218  -0.79506  -0.76613  -0.74236  -0.73137
 Alpha  occ. eigenvalues --   -0.71806  -0.71518  -0.70088  -0.69582  -0.67926
 Alpha  occ. eigenvalues --   -0.65003  -0.63926  -0.63077  -0.61552  -0.60600
 Alpha  occ. eigenvalues --   -0.59329  -0.59099  -0.56913  -0.55561  -0.53875
 Alpha  occ. eigenvalues --   -0.53049  -0.52357  -0.50820  -0.50341  -0.49195
 Alpha  occ. eigenvalues --   -0.47784  -0.47055  -0.46512  -0.46391  -0.45842
 Alpha  occ. eigenvalues --   -0.45078  -0.44511  -0.43889  -0.43574  -0.43218
 Alpha  occ. eigenvalues --   -0.42680  -0.42107  -0.41875  -0.41681  -0.41255
 Alpha  occ. eigenvalues --   -0.40942  -0.40725  -0.40578  -0.40217  -0.40099
 Alpha  occ. eigenvalues --   -0.39308  -0.39007  -0.38682  -0.38407  -0.38012
 Alpha  occ. eigenvalues --   -0.37620  -0.37501  -0.37242  -0.37134  -0.36586
 Alpha  occ. eigenvalues --   -0.36229  -0.35483  -0.35060  -0.34586  -0.34375
 Alpha  occ. eigenvalues --   -0.33990  -0.33615  -0.32977  -0.32708  -0.31877
 Alpha  occ. eigenvalues --   -0.31455  -0.31257  -0.31010  -0.28301  -0.26522
 Alpha  occ. eigenvalues --   -0.25958  -0.24762  -0.24054  -0.23317  -0.22636
 Alpha virt. eigenvalues --   -0.04514  -0.01356   0.00916   0.02372   0.04963
 Alpha virt. eigenvalues --    0.07289   0.08260   0.08636   0.09072   0.09943
 Alpha virt. eigenvalues --    0.10590   0.10844   0.11190   0.12009   0.12479
 Alpha virt. eigenvalues --    0.12843   0.13034   0.13820   0.14007   0.14154
 Alpha virt. eigenvalues --    0.14569   0.14765   0.15132   0.15557   0.16001
 Alpha virt. eigenvalues --    0.16036   0.16302   0.16855   0.17001   0.17334
 Alpha virt. eigenvalues --    0.17655   0.17864   0.18332   0.18680   0.18753
 Alpha virt. eigenvalues --    0.19019   0.19198   0.19517   0.19828   0.20229
 Alpha virt. eigenvalues --    0.20363   0.20710   0.21186   0.21746   0.22470
 Alpha virt. eigenvalues --    0.22813   0.23364   0.23681   0.24070   0.24341
 Alpha virt. eigenvalues --    0.24678   0.25169   0.25987   0.26354   0.26746
 Alpha virt. eigenvalues --    0.27281   0.27763   0.27906   0.28892   0.30003
 Alpha virt. eigenvalues --    0.30248   0.31608   0.32505   0.32886   0.33797
 Alpha virt. eigenvalues --    0.35296   0.35865   0.36855   0.39084   0.39741
 Alpha virt. eigenvalues --    0.42031   0.45531   0.46956   0.48173   0.48684
 Alpha virt. eigenvalues --    0.49305   0.50021   0.50635   0.51382   0.51484
 Alpha virt. eigenvalues --    0.51907   0.52378   0.52727   0.53032   0.53392
 Alpha virt. eigenvalues --    0.53909   0.54026   0.55262   0.55454   0.56081
 Alpha virt. eigenvalues --    0.56998   0.57152   0.57989   0.58206   0.59493
 Alpha virt. eigenvalues --    0.60296   0.60496   0.61248   0.61356   0.62268
 Alpha virt. eigenvalues --    0.62502   0.62822   0.63337   0.63642   0.64693
 Alpha virt. eigenvalues --    0.64874   0.65213   0.66066   0.66781   0.67717
 Alpha virt. eigenvalues --    0.67923   0.68744   0.69003   0.69389   0.70037
 Alpha virt. eigenvalues --    0.70178   0.71057   0.71843   0.72881   0.73291
 Alpha virt. eigenvalues --    0.74312   0.74932   0.75401   0.76051   0.76340
 Alpha virt. eigenvalues --    0.76864   0.77451   0.77989   0.78675   0.79919
 Alpha virt. eigenvalues --    0.80056   0.80819   0.81480   0.81763   0.82299
 Alpha virt. eigenvalues --    0.82624   0.83588   0.83763   0.84059   0.85091
 Alpha virt. eigenvalues --    0.85631   0.85935   0.86151   0.86419   0.86719
 Alpha virt. eigenvalues --    0.87397   0.87962   0.88293   0.88798   0.88934
 Alpha virt. eigenvalues --    0.89028   0.89517   0.89813   0.90000   0.90852
 Alpha virt. eigenvalues --    0.91180   0.91341   0.91770   0.92689   0.92825
 Alpha virt. eigenvalues --    0.93219   0.93561   0.93893   0.94239   0.94690
 Alpha virt. eigenvalues --    0.95227   0.95524   0.96325   0.96357   0.96982
 Alpha virt. eigenvalues --    0.97105   0.97818   0.98008   0.99429   0.99981
 Alpha virt. eigenvalues --    1.00860   1.01168   1.01430   1.02514   1.03082
 Alpha virt. eigenvalues --    1.05125   1.05543   1.06010   1.07357   1.08364
 Alpha virt. eigenvalues --    1.08963   1.09698   1.10554   1.11438   1.12397
 Alpha virt. eigenvalues --    1.13141   1.14406   1.15323   1.16219   1.17001
 Alpha virt. eigenvalues --    1.17904   1.19134   1.19664   1.19929   1.22098
 Alpha virt. eigenvalues --    1.23460   1.24277   1.25085   1.26341   1.27697
 Alpha virt. eigenvalues --    1.29562   1.29731   1.31227   1.32041   1.33382
 Alpha virt. eigenvalues --    1.33898   1.36625   1.37829   1.38415   1.39788
 Alpha virt. eigenvalues --    1.41646   1.42451   1.43641   1.44994   1.45699
 Alpha virt. eigenvalues --    1.47256   1.48333   1.49238   1.50036   1.51948
 Alpha virt. eigenvalues --    1.54033   1.55440   1.55594   1.56641   1.59476
 Alpha virt. eigenvalues --    1.61049   1.61090   1.62337   1.62573   1.64260
 Alpha virt. eigenvalues --    1.65374   1.66616   1.66944   1.68341   1.70057
 Alpha virt. eigenvalues --    1.71370   1.71812   1.73025   1.73166   1.73529
 Alpha virt. eigenvalues --    1.74080   1.74517   1.75771   1.76322   1.77444
 Alpha virt. eigenvalues --    1.78538   1.79224   1.79624   1.81919   1.82224
 Alpha virt. eigenvalues --    1.82651   1.83371   1.83867   1.84647   1.85509
 Alpha virt. eigenvalues --    1.85677   1.86637   1.87250   1.87503   1.88243
 Alpha virt. eigenvalues --    1.88709   1.89004   1.90216   1.90941   1.91285
 Alpha virt. eigenvalues --    1.92105   1.92891   1.93639   1.94065   1.94647
 Alpha virt. eigenvalues --    1.95613   1.96759   1.97047   1.97347   1.97820
 Alpha virt. eigenvalues --    1.98524   1.98588   1.99235   2.00256   2.01495
 Alpha virt. eigenvalues --    2.02308   2.02898   2.03936   2.04775   2.05495
 Alpha virt. eigenvalues --    2.06547   2.07034   2.07391   2.07841   2.09486
 Alpha virt. eigenvalues --    2.10310   2.10723   2.11385   2.12000   2.13367
 Alpha virt. eigenvalues --    2.14405   2.14860   2.15980   2.17000   2.17449
 Alpha virt. eigenvalues --    2.18876   2.19407   2.20906   2.21641   2.22505
 Alpha virt. eigenvalues --    2.23931   2.24543   2.25564   2.26097   2.26674
 Alpha virt. eigenvalues --    2.27416   2.28071   2.29340   2.30749   2.31763
 Alpha virt. eigenvalues --    2.32621   2.32919   2.34223   2.34404   2.35049
 Alpha virt. eigenvalues --    2.35263   2.35618   2.36747   2.37518   2.38725
 Alpha virt. eigenvalues --    2.39073   2.39913   2.41466   2.42120   2.43264
 Alpha virt. eigenvalues --    2.44124   2.45286   2.47370   2.48252   2.48746
 Alpha virt. eigenvalues --    2.49986   2.50909   2.51755   2.52897   2.53819
 Alpha virt. eigenvalues --    2.55025   2.56047   2.57035   2.58192   2.59130
 Alpha virt. eigenvalues --    2.60320   2.62724   2.63436   2.64261   2.65331
 Alpha virt. eigenvalues --    2.66680   2.67283   2.68854   2.69448   2.70192
 Alpha virt. eigenvalues --    2.71412   2.72780   2.73343   2.76207   2.77117
 Alpha virt. eigenvalues --    2.77962   2.79291   2.80617   2.83288   2.83732
 Alpha virt. eigenvalues --    2.85386   2.91013   2.92324   2.94618   2.97892
 Alpha virt. eigenvalues --    2.99026   3.00060   3.00827   3.01932   3.03003
 Alpha virt. eigenvalues --    3.04971   3.07105   3.12405   3.18301   3.20726
 Alpha virt. eigenvalues --    3.23931   3.28095   4.04907   4.06555   4.11398
 Alpha virt. eigenvalues --    4.13063   4.13671   4.16515   4.19359   4.19880
 Alpha virt. eigenvalues --    4.22368   4.24016   4.26462   4.27652   4.30814
 Alpha virt. eigenvalues --    4.31436   4.34859   4.37553   4.39206   4.45462
 Alpha virt. eigenvalues --    4.46344   4.50422   4.52452   4.55091   4.57906
 Alpha virt. eigenvalues --    4.61394   4.65939   4.69097   4.74105   4.81897
 Alpha virt. eigenvalues --    4.89064   5.02451   5.16063
          Condensed to atoms (all electrons):
 Mulliken atomic charges:
              1
     1  C   -0.184025
     2  C    0.194233
     3  C   -0.189508
     4  C    0.321187
     5  C   -0.051211
     6  C   -0.334146
     7  C    0.200197
     8  C    0.403258
     9  C   -0.101618
    10  C    0.442041
    11  C    0.419014
    12  O   -0.438973
    13  C   -0.144473
    14  C   -0.265022
    15  C   -0.465312
    16  O   -0.507041
    17  C   -0.165913
    18  C    0.307355
    19  O   -0.541367
    20  C   -0.323611
    21  O   -0.662745
    22  C   -0.325677
    23  C    0.105973
    24  O   -0.590318
    25  C    0.187275
    26  C   -0.519600
    27  C   -0.408497
    28  C   -0.469120
    29  C   -0.459659
    30  H    0.143381
    31  H    0.165731
    32  C   -0.519614
    33  H    0.124350
    34  H    0.145031
    35  H    0.185877
    36  H    0.154504
    37  H    0.144614
    38  H    0.128993
    39  H    0.142907
    40  H    0.159593
    41  H    0.161847
    42  H    0.150954
    43  H    0.170309
    44  H    0.416450
    45  H    0.166643
    46  H    0.172443
    47  H    0.145713
    48  H    0.170240
    49  H    0.159215
    50  H    0.161608
    51  H    0.152828
    52  H    0.139381
    53  H    0.193241
    54  H    0.155528
    55  H    0.143596
    56  H    0.150967
    57  H    0.162997
    58  H    0.164507
    59  H    0.158991
    60  H    0.158488
    61  H    0.149166
    62  C   -0.465370
    63  H    0.175353
    64  H    0.141032
    65  H    0.135811
 Sum of Mulliken atomic charges =   0.00000
 Mulliken charges with hydrogens summed into heavy atoms:
              1
     1  C   -0.059675
     2  C    0.194233
     3  C   -0.023776
     4  C    0.321187
     5  C   -0.051211
     6  C   -0.003238
     7  C    0.200197
     8  C    0.403258
     9  C   -0.101618
    10  C    0.442041
    11  C    0.419014
    12  O   -0.438973
    13  C    0.010031
    14  C    0.008586
    15  C   -0.000965
    16  O   -0.507041
    17  C   -0.022532
    18  C    0.307355
    19  O   -0.541367
    20  C   -0.002348
    21  O   -0.246295
    22  C    0.013408
    23  C    0.251686
    24  O   -0.590318
    25  C    0.187275
    26  C   -0.028537
    27  C   -0.116288
    28  C    0.023244
    29  C    0.018812
    32  C   -0.052970
    62  C   -0.013174
 Sum of Mulliken charges with hydrogens summed into heavy atoms =   0.00000
 Electronic spatial extent (au):  <R**2>=          10858.3975
 Charge=              0.0000 electrons
 Dipole moment (field-independent basis, Debye):
    X=             -3.3038    Y=              2.6483    Z=             -3.9059  Tot=              5.7606
 Quadrupole moment (field-independent basis, Debye-Ang):
   XX=           -181.4497   YY=           -174.5712   ZZ=           -190.7072
   XY=              6.7493   XZ=            -10.2352   YZ=              1.3267
 Traceless Quadrupole moment (field-independent basis, Debye-Ang):
   XX=              0.7930   YY=              7.6715   ZZ=             -8.4645
   XY=              6.7493   XZ=            -10.2352   YZ=              1.3267
 Octapole moment (field-independent basis, Debye-Ang**2):
  XXX=             -4.1289  YYY=             26.9760  ZZZ=            -31.1472  XYY=             -6.3460
  XXY=            -37.5230  XXZ=            -27.3938  XZZ=            -33.5380  YZZ=             28.1098
  YYZ=            -20.5623  XYZ=             -6.6637
 Hexadecapole moment (field-independent basis, Debye-Ang**3):
 XXXX=          -6779.8690 YYYY=          -4362.2409 ZZZZ=          -3327.8122 XXXY=             75.9790
 XXXZ=            -34.7007 YYYX=             42.1954 YYYZ=             -7.6776 ZZZX=            -36.9069
 ZZZY=              7.1767 XXYY=          -1770.9971 XXZZ=          -1709.0964 YYZZ=          -1281.3247
 XXYZ=             -2.2077 YYXZ=             14.0650 ZZXY=             39.6974
 N-N= 3.547035894755D+03 E-N=-1.032022605552D+04  KE= 1.374453125644D+03
 1\1\GINC-B0800\FOpt\RB3LYP\6-31G(d)\C26H34O5\CAOFEI\24-Mar-2021\0\\# o
 pt rb3lyp/6-31g(d) geom=connectivity\\Title Card Required\\0,1\C,-0.03
 09258654,-0.0049302522,0.0421217432\C,1.3061977745,-0.0471882216,0.025
 388564\C,2.1339766905,1.2207908481,0.0150286256\C,1.3543435973,2.53999
 26255,-0.2786685004\C,-0.1489681914,2.4540840861,-0.6460410018\C,-0.84
 02260793,1.2619606828,0.0606605461\C,2.199386654,3.2570860757,-1.36638
 06721\C,1.8123807168,2.8580393367,-2.7742822955\C,0.5682462523,2.51603
 96128,-3.1730516622\C,-0.4881609283,2.3833648709,-2.1584763043\C,0.229
 5314677,2.0621181529,-4.5848035111\O,-0.0365510894,0.8896373532,-4.768
 0351336\C,0.2384450963,3.0469383189,-5.764077777\C,-0.0069676045,4.519
 1021832,-5.3904798932\C,1.5421157363,2.8575643067,-6.5716727316\O,-1.6
 609000385,2.223491224,-2.4781069175\C,3.6252538096,2.6629738985,-1.331
 5212128\C,4.145078934,2.9276434005,-2.7647671587\O,2.8962044255,2.8426
 277539,-3.5719928224\C,3.335058294,1.1905866355,-0.9746828749\O,2.1102
 875998,4.667406973,-1.2826610704\C,-0.6863740515,3.794760292,-0.082716
 1594\C,0.138216627,3.9747396607,1.2002243231\O,1.4112410706,3.36711044
 93,0.9114947556\C,0.3016938499,5.4024295372,1.6775073998\C,-0.98578891
 24,6.1652425487,1.8710048501\C,1.4987282071,5.9291188978,1.9563739845\
 C,4.7228842588,4.334114955,-2.9393517054\C,5.0928139936,1.8773704881,-
 3.3378482595\H,4.2515757626,3.1496573524,-0.5773398738\H,2.5456487366,
 1.3644505972,1.024362638\C,2.0616259075,-1.3517248295,0.0874241276\H,-
 0.5879751151,-0.9398429466,0.0833430041\H,-1.0594434903,1.5307062465,1
 .1052973535\H,-1.8096669251,1.1124693872,-0.4237753573\H,-0.5870508139
 ,2.69995325,-6.400429838\H,0.6955628758,4.8224372845,-4.6037780057\H,0
 .2334662125,5.1374233352,-6.265825555\H,1.4885120998,3.4335181099,-7.5
 0249586\H,1.6853255711,1.8029958445,-6.82786766\H,2.4142668225,3.19641
 94302,-6.0055308341\H,4.2044379991,0.6803833805,-0.5501595445\H,3.0455
 256688,0.6381114376,-1.875198948\H,2.0766512693,4.8686633749,-0.326851
 1617\H,-1.7635328612,3.7519748355,0.097315698\H,-0.4802247994,4.613248
 3699,-0.7794736026\H,-0.3285388095,3.4023876109,2.0188645339\H,-1.5251
 515932,6.2965136561,0.924368636\H,-1.6644790868,5.6299015413,2.5491689
 999\H,-0.7976446603,7.1555729022,2.2950200083\H,2.4133125632,5.3519752
 593,1.8650212767\H,1.5935764747,6.9518433116,2.3112633174\H,4.03972585
 05,5.0884333433,-2.5452108625\H,4.9049663438,4.5330619642,-4.000642520
 8\H,5.6790860351,4.4131273116,-2.4092195778\H,6.0247651194,1.862912252
 2,-2.7617861154\H,5.3392910887,2.1210440513,-4.3762533941\H,4.65620343
 77,0.8763256239,-3.3186089885\H,1.3756571522,-2.2005158521,0.16657549\
 H,2.6870192329,-1.5091130356,-0.8005648208\H,2.7355700489,-1.379031022
 3,0.9558200636\C,-1.4480440821,4.8081423073,-4.9510860522\H,-1.7521946
 104,4.1788476256,-4.1081823947\H,-2.1498920142,4.6141569671,-5.7717275
 691\H,-1.5660557058,5.856753028,-4.6541237386\\Version=EM64L-G09RevB.0
 1\State=1-A\HF=-1387.3165184\RMSD=3.948e-09\RMSF=3.744e-06\Dipole=1.57
 406,0.7225255,1.46182\Quadrupole=2.3965445,-1.4215065,-0.975038,-6.691
 5356,-7.6294382,-3.5997064\PG=C01 [X(C26H34O5)]\\@


 IN NATURE THERE ARE NEITHER REWARDS OR
 PUNISHMENTS -- THERE ARE CONSEQUENCES.

                            -- ROBERT GREEN INGERSOLL
 Job cpu time:  0 days  5 hours 35 minutes 27.3 seconds.
 File lengths (MBytes):  RWF=    186 Int=      0 D2E=      0 Chk=     20 Scr=      1
 Normal termination of Gaussian 09 at Wed Mar 24 18:00:15 2021.
