 Entering Gaussian System, Link 0=g09
 Initial command:
 /public/software/g09/g09/l1.exe /tmp/Gau-12656.inp -scrdir=/tmp/
 Entering Link 1 = /public/software/g09/g09/l1.exe PID=     12657.
  
 Copyright (c) 1988,1990,1992,1993,1995,1998,2003,2009,2010,
            Gaussian, Inc.  All Rights Reserved.
  
 This is part of the Gaussian(R) 09 program.  It is based on
 the Gaussian(R) 03 system (copyright 2003, Gaussian, Inc.),
 the Gaussian(R) 98 system (copyright 1998, Gaussian, Inc.),
 the Gaussian(R) 94 system (copyright 1995, Gaussian, Inc.),
 the Gaussian 92(TM) system (copyright 1992, Gaussian, Inc.),
 the Gaussian 90(TM) system (copyright 1990, Gaussian, Inc.),
 the Gaussian 88(TM) system (copyright 1988, Gaussian, Inc.),
 the Gaussian 86(TM) system (copyright 1986, Carnegie Mellon
 University), and the Gaussian 82(TM) system (copyright 1983,
 Carnegie Mellon University). Gaussian is a federally registered
 trademark of Gaussian, Inc.
  
 This software contains proprietary and confidential information,
 including trade secrets, belonging to Gaussian, Inc.
  
 This software is provided under written license and may be
 used, copied, transmitted, or stored only in accord with that
 written license.
  
 The following legend is applicable only to US Government
 contracts under FAR:
  
                    RESTRICTED RIGHTS LEGEND
  
 Use, reproduction and disclosure by the US Government is
 subject to restrictions as set forth in subparagraphs (a)
 and (c) of the Commercial Computer Software - Restricted
 Rights clause in FAR 52.227-19.
  
 Gaussian, Inc.
 340 Quinnipiac St., Bldg. 40, Wallingford CT 06492
  
  
 ---------------------------------------------------------------
 Warning -- This program may not be used in any manner that
 competes with the business of Gaussian, Inc. or will provide
 assistance to any competitor of Gaussian, Inc.  The licensee
 of this program is prohibited from giving any competitor of
 Gaussian, Inc. access to this program.  By using this program,
 the user acknowledges that Gaussian, Inc. is engaged in the
 business of creating and licensing software in the field of
 computational chemistry and represents and warrants to the
 licensee that it is not a competitor of Gaussian, Inc. and that
 it will not use this program in any manner prohibited above.
 ---------------------------------------------------------------
  

 Cite this work as:
 Gaussian 09, Revision B.01,
 M. J. Frisch, G. W. Trucks, H. B. Schlegel, G. E. Scuseria, 
 M. A. Robb, J. R. Cheeseman, G. Scalmani, V. Barone, B. Mennucci, 
 G. A. Petersson, H. Nakatsuji, M. Caricato, X. Li, H. P. Hratchian, 
 A. F. Izmaylov, J. Bloino, G. Zheng, J. L. Sonnenberg, M. Hada, 
 M. Ehara, K. Toyota, R. Fukuda, J. Hasegawa, M. Ishida, T. Nakajima, 
 Y. Honda, O. Kitao, H. Nakai, T. Vreven, J. A. Montgomery, Jr., 
 J. E. Peralta, F. Ogliaro, M. Bearpark, J. J. Heyd, E. Brothers, 
 K. N. Kudin, V. N. Staroverov, T. Keith, R. Kobayashi, J. Normand, 
 K. Raghavachari, A. Rendell, J. C. Burant, S. S. Iyengar, J. Tomasi, 
 M. Cossi, N. Rega, J. M. Millam, M. Klene, J. E. Knox, J. B. Cross, 
 V. Bakken, C. Adamo, J. Jaramillo, R. Gomperts, R. E. Stratmann, 
 O. Yazyev, A. J. Austin, R. Cammi, C. Pomelli, J. W. Ochterski, 
 R. L. Martin, K. Morokuma, V. G. Zakrzewski, G. A. Voth, 
 P. Salvador, J. J. Dannenberg, S. Dapprich, A. D. Daniels, 
 O. Farkas, J. B. Foresman, J. V. Ortiz, J. Cioslowski, 
 and D. J. Fox, Gaussian, Inc., Wallingford CT, 2010.
 
 ******************************************
 Gaussian 09:  EM64L-G09RevB.01 12-Aug-2010
                24-Mar-2021 
 ******************************************
 %mem=600MW
 %nprocshared=10
 Will use up to   10 processors via shared memory.
 ---------------------------------------
 # opt rb3lyp/6-31g(d) geom=connectivity
 ---------------------------------------
 1/14=-1,18=20,19=15,26=3,38=1,57=2/1,3;
 2/9=110,12=2,17=6,18=5,40=1/2;
 3/5=1,6=6,7=1,11=2,16=1,25=1,30=1,71=1,74=-5,116=1/1,2,3;
 4//1;
 5/5=2,38=5/2;
 6/7=2,8=2,9=2,10=2,28=1/1;
 7//1,2,3,16;
 1/14=-1,18=20,19=15/3(2);
 2/9=110/2;
 99//99;
 2/9=110/2;
 3/5=1,6=6,7=1,11=2,16=1,25=1,30=1,71=1,74=-5,116=1/1,2,3;
 4/5=5,16=3/1;
 5/5=2,38=5/2;
 7//1,2,3,16;
 1/14=-1,18=20,19=15/3(-5);
 2/9=110/2;
 6/7=2,8=2,9=2,10=2,19=2,28=1/1;
 99/9=1/99;
 -------------------
 Title Card Required
 -------------------
 Symbolic Z-matrix:
 Charge =  0 Multiplicity = 1
 C                     0.        0.        0. 
 C                     1.3398    0.        0. 
 C                     2.1408    1.2774    0. 
 C                     1.3501    2.5968   -0.2359 
 C                    -0.1727    2.5153   -0.4906 
 C                    -0.847     1.2273    0.0319 
 C                     2.109     3.3107   -1.374 
 C                     1.6485    2.9859   -2.7522 
 C                     0.3829    2.6705   -3.0404 
 C                    -0.6136    2.7093   -1.9502 
 C                     0.0063    2.2526   -4.4094 
 O                    -0.3856    1.1007   -4.5966 
 C                     0.0759    3.2983   -5.5198 
 C                     0.4898    2.6717   -6.8604 
 C                    -1.296     3.9605   -5.6414 
 O                    -1.7984    2.9072   -2.2286 
 C                     3.5062    2.7322   -1.4264 
 C                     3.9177    2.9726   -2.8939 
 O                     2.693     2.8668   -3.6636 
 C                     3.2575    1.2627   -1.0596 
 O                     2.108     4.7176   -1.2068 
 C                    -0.6897    3.7198    0.3097 
 C                     0.2465    3.7395    1.5035 
 O                     1.5384    3.4309    0.961 
 C                     0.2765    5.0371    2.2716 
 C                     0.9101    6.2418    1.6353 
 C                    -0.2496    5.1194    3.5065 
 C                     4.5083    4.3727   -3.1261 
 C                     4.9135    1.9386   -3.4305 
 H                     4.198     3.2014   -0.7175 
 H                     2.6296    1.3397    0.9834 
 C                     2.106    -1.2951    0.0811 
 H                    -0.5387   -0.9459    0.0379 
 H                    -1.7573    1.0137   -0.5432 
 H                    -1.1886    1.3466    1.0677 
 H                     0.8086    4.0688   -5.2527 
 H                    -0.1796    1.8433   -7.1226 
 H                     0.3937    3.4203   -7.6565 
 H                    -1.5851    4.4391   -4.6996 
 H                    -1.2909    4.7304   -6.4199 
 H                    -2.0716    3.2276   -5.8901 
 H                     2.9387    0.6768   -1.9305 
 H                     4.172     0.7963   -0.6758 
 H                     2.2756    4.8561   -0.2535 
 H                    -1.7408    3.6325    0.6073 
 H                    -0.5987    4.6375   -0.2847 
 H                    -0.0027    2.918     2.1873 
 H                     1.9871    6.0895    1.5178 
 H                     0.4714    6.4458    0.6546 
 H                     0.7749    7.1439    2.2422 
 H                    -0.7113    4.2633    3.9892 
 H                    -0.2318    6.0465    4.0719 
 H                     4.7775    4.5065   -4.1807 
 H                     5.4059    4.5308   -2.5196 
 H                     3.7942    5.1709   -2.9068 
 H                     5.1977    2.1746   -4.463 
 H                     5.8231    1.9075   -2.8221 
 H                     4.4816    0.934    -3.4739 
 H                     1.4451   -2.1566    0.2251 
 H                     2.6763   -1.4689   -0.8364 
 H                     2.8014   -1.271     0.9265 
 C                     1.9263    2.1654   -6.8555 
 H                     2.0665    1.3618   -6.1264 
 H                     2.1886    1.7705   -7.8422 
 H                     2.6259    2.9734   -6.6189 
 

 GradGradGradGradGradGradGradGradGradGradGradGradGradGradGradGradGradGrad
 Berny optimization.
 Initialization pass.
                           ----------------------------
                           !    Initial Parameters    !
                           ! (Angstroms and Degrees)  !
 --------------------------                            --------------------------
 ! Name  Definition              Value          Derivative Info.                !
 --------------------------------------------------------------------------------
 ! R1    R(1,2)                  1.3398         estimate D2E/DX2                !
 ! R2    R(1,6)                  1.4915         estimate D2E/DX2                !
 ! R3    R(1,33)                 1.0892         estimate D2E/DX2                !
 ! R4    R(2,3)                  1.5078         estimate D2E/DX2                !
 ! R5    R(2,32)                 1.507          estimate D2E/DX2                !
 ! R6    R(3,4)                  1.5562         estimate D2E/DX2                !
 ! R7    R(3,20)                 1.5395         estimate D2E/DX2                !
 ! R8    R(3,31)                 1.0999         estimate D2E/DX2                !
 ! R9    R(4,5)                  1.5461         estimate D2E/DX2                !
 ! R10   R(4,7)                  1.543          estimate D2E/DX2                !
 ! R11   R(4,24)                 1.471          estimate D2E/DX2                !
 ! R12   R(5,6)                  1.5449         estimate D2E/DX2                !
 ! R13   R(5,10)                 1.537          estimate D2E/DX2                !
 ! R14   R(5,22)                 1.5358         estimate D2E/DX2                !
 ! R15   R(6,34)                 1.0977         estimate D2E/DX2                !
 ! R16   R(6,35)                 1.0972         estimate D2E/DX2                !
 ! R17   R(7,8)                  1.489          estimate D2E/DX2                !
 ! R18   R(7,17)                 1.5131         estimate D2E/DX2                !
 ! R19   R(7,21)                 1.4168         estimate D2E/DX2                !
 ! R20   R(8,9)                  1.3358         estimate D2E/DX2                !
 ! R21   R(8,19)                 1.3913         estimate D2E/DX2                !
 ! R22   R(9,10)                 1.4775         estimate D2E/DX2                !
 ! R23   R(9,11)                 1.4801         estimate D2E/DX2                !
 ! R24   R(10,16)                1.2331         estimate D2E/DX2                !
 ! R25   R(11,12)                1.2311         estimate D2E/DX2                !
 ! R26   R(11,13)                1.5269         estimate D2E/DX2                !
 ! R27   R(13,14)                1.5366         estimate D2E/DX2                !
 ! R28   R(13,15)                1.5282         estimate D2E/DX2                !
 ! R29   R(13,36)                1.0963         estimate D2E/DX2                !
 ! R30   R(14,37)                1.0969         estimate D2E/DX2                !
 ! R31   R(14,38)                1.097          estimate D2E/DX2                !
 ! R32   R(14,62)                1.5231         estimate D2E/DX2                !
 ! R33   R(15,39)                1.0953         estimate D2E/DX2                !
 ! R34   R(15,40)                1.0949         estimate D2E/DX2                !
 ! R35   R(15,41)                1.0957         estimate D2E/DX2                !
 ! R36   R(17,18)                1.5429         estimate D2E/DX2                !
 ! R37   R(17,20)                1.5349         estimate D2E/DX2                !
 ! R38   R(17,30)                1.096          estimate D2E/DX2                !
 ! R39   R(18,19)                1.4504         estimate D2E/DX2                !
 ! R40   R(18,28)                1.5372         estimate D2E/DX2                !
 ! R41   R(18,29)                1.5326         estimate D2E/DX2                !
 ! R42   R(20,42)                1.097          estimate D2E/DX2                !
 ! R43   R(20,43)                1.096          estimate D2E/DX2                !
 ! R44   R(21,44)                0.9778         estimate D2E/DX2                !
 ! R45   R(22,23)                1.5172         estimate D2E/DX2                !
 ! R46   R(22,45)                1.0959         estimate D2E/DX2                !
 ! R47   R(22,46)                1.0972         estimate D2E/DX2                !
 ! R48   R(23,24)                1.4348         estimate D2E/DX2                !
 ! R49   R(23,25)                1.5082         estimate D2E/DX2                !
 ! R50   R(23,47)                1.0975         estimate D2E/DX2                !
 ! R51   R(25,26)                1.5025         estimate D2E/DX2                !
 ! R52   R(25,27)                1.3448         estimate D2E/DX2                !
 ! R53   R(26,48)                1.094          estimate D2E/DX2                !
 ! R54   R(26,49)                1.0935         estimate D2E/DX2                !
 ! R55   R(26,50)                1.0956         estimate D2E/DX2                !
 ! R56   R(27,51)                1.0859         estimate D2E/DX2                !
 ! R57   R(27,52)                1.0861         estimate D2E/DX2                !
 ! R58   R(28,53)                1.0966         estimate D2E/DX2                !
 ! R59   R(28,54)                1.0948         estimate D2E/DX2                !
 ! R60   R(28,55)                1.0932         estimate D2E/DX2                !
 ! R61   R(29,56)                1.0966         estimate D2E/DX2                !
 ! R62   R(29,57)                1.0948         estimate D2E/DX2                !
 ! R63   R(29,58)                1.0944         estimate D2E/DX2                !
 ! R64   R(32,59)                1.0953         estimate D2E/DX2                !
 ! R65   R(32,60)                1.0942         estimate D2E/DX2                !
 ! R66   R(32,61)                1.0949         estimate D2E/DX2                !
 ! R67   R(62,63)                1.0941         estimate D2E/DX2                !
 ! R68   R(62,64)                1.0947         estimate D2E/DX2                !
 ! R69   R(62,65)                1.0947         estimate D2E/DX2                !
 ! A1    A(2,1,6)              124.6018         estimate D2E/DX2                !
 ! A2    A(2,1,33)             119.6422         estimate D2E/DX2                !
 ! A3    A(6,1,33)             115.6569         estimate D2E/DX2                !
 ! A4    A(1,2,3)              122.09           estimate D2E/DX2                !
 ! A5    A(1,2,32)             120.5601         estimate D2E/DX2                !
 ! A6    A(3,2,32)             117.258          estimate D2E/DX2                !
 ! A7    A(2,3,4)              116.6398         estimate D2E/DX2                !
 ! A8    A(2,3,20)             112.1645         estimate D2E/DX2                !
 ! A9    A(2,3,31)             106.503          estimate D2E/DX2                !
 ! A10   A(4,3,20)             105.8028         estimate D2E/DX2                !
 ! A11   A(4,3,31)             108.2583         estimate D2E/DX2                !
 ! A12   A(20,3,31)            107.0707         estimate D2E/DX2                !
 ! A13   A(3,4,5)              118.7329         estimate D2E/DX2                !
 ! A14   A(3,4,7)              104.7251         estimate D2E/DX2                !
 ! A15   A(3,4,24)             107.0003         estimate D2E/DX2                !
 ! A16   A(5,4,7)              112.7867         estimate D2E/DX2                !
 ! A17   A(5,4,24)             106.8589         estimate D2E/DX2                !
 ! A18   A(7,4,24)             105.953          estimate D2E/DX2                !
 ! A19   A(4,5,6)              114.7165         estimate D2E/DX2                !
 ! A20   A(4,5,10)             115.6144         estimate D2E/DX2                !
 ! A21   A(4,5,22)             101.793          estimate D2E/DX2                !
 ! A22   A(6,5,10)             107.5299         estimate D2E/DX2                !
 ! A23   A(6,5,22)             109.3117         estimate D2E/DX2                !
 ! A24   A(10,5,22)            107.4154         estimate D2E/DX2                !
 ! A25   A(1,6,5)              115.5265         estimate D2E/DX2                !
 ! A26   A(1,6,34)             107.4332         estimate D2E/DX2                !
 ! A27   A(1,6,35)             106.6463         estimate D2E/DX2                !
 ! A28   A(5,6,34)             110.3033         estimate D2E/DX2                !
 ! A29   A(5,6,35)             111.379          estimate D2E/DX2                !
 ! A30   A(34,6,35)            104.9256         estimate D2E/DX2                !
 ! A31   A(4,7,8)              115.4475         estimate D2E/DX2                !
 ! A32   A(4,7,17)             107.6262         estimate D2E/DX2                !
 ! A33   A(4,7,21)             111.8418         estimate D2E/DX2                !
 ! A34   A(8,7,17)              99.7952         estimate D2E/DX2                !
 ! A35   A(8,7,21)             109.0038         estimate D2E/DX2                !
 ! A36   A(17,7,21)            112.6056         estimate D2E/DX2                !
 ! A37   A(7,8,9)              122.973          estimate D2E/DX2                !
 ! A38   A(7,8,19)             113.1301         estimate D2E/DX2                !
 ! A39   A(9,8,19)             123.349          estimate D2E/DX2                !
 ! A40   A(8,9,10)             118.2692         estimate D2E/DX2                !
 ! A41   A(8,9,11)             120.4849         estimate D2E/DX2                !
 ! A42   A(10,9,11)            121.2176         estimate D2E/DX2                !
 ! A43   A(5,10,9)             120.259          estimate D2E/DX2                !
 ! A44   A(5,10,16)            120.6832         estimate D2E/DX2                !
 ! A45   A(9,10,16)            119.0563         estimate D2E/DX2                !
 ! A46   A(9,11,12)            119.0681         estimate D2E/DX2                !
 ! A47   A(9,11,13)            117.8846         estimate D2E/DX2                !
 ! A48   A(12,11,13)           123.0078         estimate D2E/DX2                !
 ! A49   A(11,13,14)           111.5602         estimate D2E/DX2                !
 ! A50   A(11,13,15)           108.2831         estimate D2E/DX2                !
 ! A51   A(11,13,36)           109.5495         estimate D2E/DX2                !
 ! A52   A(14,13,15)           110.4316         estimate D2E/DX2                !
 ! A53   A(14,13,36)           108.6106         estimate D2E/DX2                !
 ! A54   A(15,13,36)           108.3502         estimate D2E/DX2                !
 ! A55   A(13,14,37)           110.6186         estimate D2E/DX2                !
 ! A56   A(13,14,38)           109.3457         estimate D2E/DX2                !
 ! A57   A(13,14,62)           112.7547         estimate D2E/DX2                !
 ! A58   A(37,14,38)           106.765          estimate D2E/DX2                !
 ! A59   A(37,14,62)           108.9837         estimate D2E/DX2                !
 ! A60   A(38,14,62)           108.1673         estimate D2E/DX2                !
 ! A61   A(13,15,39)           110.9702         estimate D2E/DX2                !
 ! A62   A(13,15,40)           110.9214         estimate D2E/DX2                !
 ! A63   A(13,15,41)           111.3263         estimate D2E/DX2                !
 ! A64   A(39,15,40)           107.7796         estimate D2E/DX2                !
 ! A65   A(39,15,41)           107.4946         estimate D2E/DX2                !
 ! A66   A(40,15,41)           108.1948         estimate D2E/DX2                !
 ! A67   A(7,17,18)            102.6875         estimate D2E/DX2                !
 ! A68   A(7,17,20)            102.0135         estimate D2E/DX2                !
 ! A69   A(7,17,30)            113.3759         estimate D2E/DX2                !
 ! A70   A(18,17,20)           114.8142         estimate D2E/DX2                !
 ! A71   A(18,17,30)           112.3417         estimate D2E/DX2                !
 ! A72   A(20,17,30)           110.9507         estimate D2E/DX2                !
 ! A73   A(17,18,19)           105.556          estimate D2E/DX2                !
 ! A74   A(17,18,28)           112.8328         estimate D2E/DX2                !
 ! A75   A(17,18,29)           113.6523         estimate D2E/DX2                !
 ! A76   A(19,18,28)           108.1017         estimate D2E/DX2                !
 ! A77   A(19,18,29)           108.2787         estimate D2E/DX2                !
 ! A78   A(28,18,29)           108.1788         estimate D2E/DX2                !
 ! A79   A(8,19,18)            106.2624         estimate D2E/DX2                !
 ! A80   A(3,20,17)            105.8356         estimate D2E/DX2                !
 ! A81   A(3,20,42)            109.9212         estimate D2E/DX2                !
 ! A82   A(3,20,43)            111.6109         estimate D2E/DX2                !
 ! A83   A(17,20,42)           111.6365         estimate D2E/DX2                !
 ! A84   A(17,20,43)           110.8499         estimate D2E/DX2                !
 ! A85   A(42,20,43)           107.051          estimate D2E/DX2                !
 ! A86   A(7,21,44)            104.8088         estimate D2E/DX2                !
 ! A87   A(5,22,23)            102.2679         estimate D2E/DX2                !
 ! A88   A(5,22,45)            113.6976         estimate D2E/DX2                !
 ! A89   A(5,22,46)            110.229          estimate D2E/DX2                !
 ! A90   A(23,22,45)           112.2831         estimate D2E/DX2                !
 ! A91   A(23,22,46)           111.3603         estimate D2E/DX2                !
 ! A92   A(45,22,46)           107.0556         estimate D2E/DX2                !
 ! A93   A(22,23,24)           104.7915         estimate D2E/DX2                !
 ! A94   A(22,23,25)           115.0977         estimate D2E/DX2                !
 ! A95   A(22,23,47)           109.9013         estimate D2E/DX2                !
 ! A96   A(24,23,25)           111.0824         estimate D2E/DX2                !
 ! A97   A(24,23,47)           106.2025         estimate D2E/DX2                !
 ! A98   A(25,23,47)           109.3417         estimate D2E/DX2                !
 ! A99   A(4,24,23)            108.3223         estimate D2E/DX2                !
 ! A100  A(23,25,26)           118.8512         estimate D2E/DX2                !
 ! A101  A(23,25,27)           120.8325         estimate D2E/DX2                !
 ! A102  A(26,25,27)           120.316          estimate D2E/DX2                !
 ! A103  A(25,26,48)           110.4252         estimate D2E/DX2                !
 ! A104  A(25,26,49)           111.1115         estimate D2E/DX2                !
 ! A105  A(25,26,50)           111.934          estimate D2E/DX2                !
 ! A106  A(48,26,49)           108.9398         estimate D2E/DX2                !
 ! A107  A(48,26,50)           107.1929         estimate D2E/DX2                !
 ! A108  A(49,26,50)           107.0776         estimate D2E/DX2                !
 ! A109  A(25,27,51)           121.7553         estimate D2E/DX2                !
 ! A110  A(25,27,52)           121.5929         estimate D2E/DX2                !
 ! A111  A(51,27,52)           116.6517         estimate D2E/DX2                !
 ! A112  A(18,28,53)           110.5309         estimate D2E/DX2                !
 ! A113  A(18,28,54)           111.2758         estimate D2E/DX2                !
 ! A114  A(18,28,55)           112.5658         estimate D2E/DX2                !
 ! A115  A(53,28,54)           108.2934         estimate D2E/DX2                !
 ! A116  A(53,28,55)           105.3182         estimate D2E/DX2                !
 ! A117  A(54,28,55)           108.6017         estimate D2E/DX2                !
 ! A118  A(18,29,56)           110.6627         estimate D2E/DX2                !
 ! A119  A(18,29,57)           111.374          estimate D2E/DX2                !
 ! A120  A(18,29,58)           112.1356         estimate D2E/DX2                !
 ! A121  A(56,29,57)           108.3028         estimate D2E/DX2                !
 ! A122  A(56,29,58)           105.2185         estimate D2E/DX2                !
 ! A123  A(57,29,58)           108.8971         estimate D2E/DX2                !
 ! A124  A(2,32,59)            112.1013         estimate D2E/DX2                !
 ! A125  A(2,32,60)            110.8783         estimate D2E/DX2                !
 ! A126  A(2,32,61)            110.2156         estimate D2E/DX2                !
 ! A127  A(59,32,60)           107.4455         estimate D2E/DX2                !
 ! A128  A(59,32,61)           107.399          estimate D2E/DX2                !
 ! A129  A(60,32,61)           108.6568         estimate D2E/DX2                !
 ! A130  A(14,62,63)           111.5402         estimate D2E/DX2                !
 ! A131  A(14,62,64)           110.0599         estimate D2E/DX2                !
 ! A132  A(14,62,65)           110.983          estimate D2E/DX2                !
 ! A133  A(63,62,64)           107.758          estimate D2E/DX2                !
 ! A134  A(63,62,65)           108.4344         estimate D2E/DX2                !
 ! A135  A(64,62,65)           107.9362         estimate D2E/DX2                !
 ! D1    D(6,1,2,3)             -1.4889         estimate D2E/DX2                !
 ! D2    D(6,1,2,32)           174.9279         estimate D2E/DX2                !
 ! D3    D(33,1,2,3)          -177.7055         estimate D2E/DX2                !
 ! D4    D(33,1,2,32)           -1.2887         estimate D2E/DX2                !
 ! D5    D(2,1,6,5)             23.4958         estimate D2E/DX2                !
 ! D6    D(2,1,6,34)           147.0684         estimate D2E/DX2                !
 ! D7    D(2,1,6,35)          -100.8663         estimate D2E/DX2                !
 ! D8    D(33,1,6,5)          -160.152          estimate D2E/DX2                !
 ! D9    D(33,1,6,34)          -36.5793         estimate D2E/DX2                !
 ! D10   D(33,1,6,35)           75.4859         estimate D2E/DX2                !
 ! D11   D(1,2,3,4)             -9.7642         estimate D2E/DX2                !
 ! D12   D(1,2,3,20)          -131.9948         estimate D2E/DX2                !
 ! D13   D(1,2,3,31)           111.179          estimate D2E/DX2                !
 ! D14   D(32,2,3,4)           173.7066         estimate D2E/DX2                !
 ! D15   D(32,2,3,20)           51.476          estimate D2E/DX2                !
 ! D16   D(32,2,3,31)          -65.3502         estimate D2E/DX2                !
 ! D17   D(1,2,32,59)           -5.0809         estimate D2E/DX2                !
 ! D18   D(1,2,32,60)          114.9989         estimate D2E/DX2                !
 ! D19   D(1,2,32,61)         -124.6491         estimate D2E/DX2                !
 ! D20   D(3,2,32,59)          171.5043         estimate D2E/DX2                !
 ! D21   D(3,2,32,60)          -68.4159         estimate D2E/DX2                !
 ! D22   D(3,2,32,61)           51.9361         estimate D2E/DX2                !
 ! D23   D(2,3,4,5)             -1.6719         estimate D2E/DX2                !
 ! D24   D(2,3,4,7)           -128.5968         estimate D2E/DX2                !
 ! D25   D(2,3,4,24)           119.2231         estimate D2E/DX2                !
 ! D26   D(20,3,4,5)           123.8226         estimate D2E/DX2                !
 ! D27   D(20,3,4,7)            -3.1023         estimate D2E/DX2                !
 ! D28   D(20,3,4,24)         -115.2824         estimate D2E/DX2                !
 ! D29   D(31,3,4,5)          -121.6814         estimate D2E/DX2                !
 ! D30   D(31,3,4,7)           111.3937         estimate D2E/DX2                !
 ! D31   D(31,3,4,24)           -0.7864         estimate D2E/DX2                !
 ! D32   D(2,3,20,17)          153.0589         estimate D2E/DX2                !
 ! D33   D(2,3,20,42)           32.3651         estimate D2E/DX2                !
 ! D34   D(2,3,20,43)          -86.2574         estimate D2E/DX2                !
 ! D35   D(4,3,20,17)           24.8545         estimate D2E/DX2                !
 ! D36   D(4,3,20,42)          -95.8394         estimate D2E/DX2                !
 ! D37   D(4,3,20,43)          145.5382         estimate D2E/DX2                !
 ! D38   D(31,3,20,17)         -90.4561         estimate D2E/DX2                !
 ! D39   D(31,3,20,42)         148.85           estimate D2E/DX2                !
 ! D40   D(31,3,20,43)          30.2276         estimate D2E/DX2                !
 ! D41   D(3,4,5,6)             22.2222         estimate D2E/DX2                !
 ! D42   D(3,4,5,10)          -103.8214         estimate D2E/DX2                !
 ! D43   D(3,4,5,22)           140.1276         estimate D2E/DX2                !
 ! D44   D(7,4,5,6)            145.2276         estimate D2E/DX2                !
 ! D45   D(7,4,5,10)            19.184          estimate D2E/DX2                !
 ! D46   D(7,4,5,22)           -96.867          estimate D2E/DX2                !
 ! D47   D(24,4,5,6)           -98.7446         estimate D2E/DX2                !
 ! D48   D(24,4,5,10)          135.2118         estimate D2E/DX2                !
 ! D49   D(24,4,5,22)           19.1608         estimate D2E/DX2                !
 ! D50   D(3,4,7,8)             90.216          estimate D2E/DX2                !
 ! D51   D(3,4,7,17)           -20.2026         estimate D2E/DX2                !
 ! D52   D(3,4,7,21)          -144.3872         estimate D2E/DX2                !
 ! D53   D(5,4,7,8)            -40.2905         estimate D2E/DX2                !
 ! D54   D(5,4,7,17)          -150.7091         estimate D2E/DX2                !
 ! D55   D(5,4,7,21)            85.1063         estimate D2E/DX2                !
 ! D56   D(24,4,7,8)          -156.858          estimate D2E/DX2                !
 ! D57   D(24,4,7,17)           92.7234         estimate D2E/DX2                !
 ! D58   D(24,4,7,21)          -31.4612         estimate D2E/DX2                !
 ! D59   D(3,4,24,23)         -122.7152         estimate D2E/DX2                !
 ! D60   D(5,4,24,23)            5.4491         estimate D2E/DX2                !
 ! D61   D(7,4,24,23)          125.9486         estimate D2E/DX2                !
 ! D62   D(4,5,6,1)            -32.3364         estimate D2E/DX2                !
 ! D63   D(4,5,6,34)          -154.3875         estimate D2E/DX2                !
 ! D64   D(4,5,6,35)            89.5242         estimate D2E/DX2                !
 ! D65   D(10,5,6,1)            97.7908         estimate D2E/DX2                !
 ! D66   D(10,5,6,34)          -24.2603         estimate D2E/DX2                !
 ! D67   D(10,5,6,35)         -140.3486         estimate D2E/DX2                !
 ! D68   D(22,5,6,1)          -145.896          estimate D2E/DX2                !
 ! D69   D(22,5,6,34)           92.0529         estimate D2E/DX2                !
 ! D70   D(22,5,6,35)          -24.0354         estimate D2E/DX2                !
 ! D71   D(4,5,10,9)            12.908          estimate D2E/DX2                !
 ! D72   D(4,5,10,16)         -166.6449         estimate D2E/DX2                !
 ! D73   D(6,5,10,9)          -116.7142         estimate D2E/DX2                !
 ! D74   D(6,5,10,16)           63.7328         estimate D2E/DX2                !
 ! D75   D(22,5,10,9)          125.7336         estimate D2E/DX2                !
 ! D76   D(22,5,10,16)         -53.8194         estimate D2E/DX2                !
 ! D77   D(4,5,22,23)          -35.2166         estimate D2E/DX2                !
 ! D78   D(4,5,22,45)         -156.4966         estimate D2E/DX2                !
 ! D79   D(4,5,22,46)           83.2976         estimate D2E/DX2                !
 ! D80   D(6,5,22,23)           86.5038         estimate D2E/DX2                !
 ! D81   D(6,5,22,45)          -34.7761         estimate D2E/DX2                !
 ! D82   D(6,5,22,46)         -154.982          estimate D2E/DX2                !
 ! D83   D(10,5,22,23)        -157.1102         estimate D2E/DX2                !
 ! D84   D(10,5,22,45)          81.6099         estimate D2E/DX2                !
 ! D85   D(10,5,22,46)         -38.596          estimate D2E/DX2                !
 ! D86   D(4,7,8,9)             30.9085         estimate D2E/DX2                !
 ! D87   D(4,7,8,19)          -140.853          estimate D2E/DX2                !
 ! D88   D(17,7,8,9)           145.8981         estimate D2E/DX2                !
 ! D89   D(17,7,8,19)          -25.8634         estimate D2E/DX2                !
 ! D90   D(21,7,8,9)           -95.9366         estimate D2E/DX2                !
 ! D91   D(21,7,8,19)           92.3019         estimate D2E/DX2                !
 ! D92   D(4,7,17,18)          154.3668         estimate D2E/DX2                !
 ! D93   D(4,7,17,20)           35.1759         estimate D2E/DX2                !
 ! D94   D(4,7,17,30)          -84.1806         estimate D2E/DX2                !
 ! D95   D(8,7,17,18)           33.5448         estimate D2E/DX2                !
 ! D96   D(8,7,17,20)          -85.6461         estimate D2E/DX2                !
 ! D97   D(8,7,17,30)          154.9975         estimate D2E/DX2                !
 ! D98   D(21,7,17,18)         -81.9122         estimate D2E/DX2                !
 ! D99   D(21,7,17,20)         158.8969         estimate D2E/DX2                !
 ! D100  D(21,7,17,30)          39.5405         estimate D2E/DX2                !
 ! D101  D(4,7,21,44)           42.2391         estimate D2E/DX2                !
 ! D102  D(8,7,21,44)          171.1154         estimate D2E/DX2                !
 ! D103  D(17,7,21,44)         -79.1107         estimate D2E/DX2                !
 ! D104  D(7,8,9,10)             2.9729         estimate D2E/DX2                !
 ! D105  D(7,8,9,11)          -175.1186         estimate D2E/DX2                !
 ! D106  D(19,8,9,10)          173.8965         estimate D2E/DX2                !
 ! D107  D(19,8,9,11)           -4.1949         estimate D2E/DX2                !
 ! D108  D(7,8,19,18)            5.8019         estimate D2E/DX2                !
 ! D109  D(9,8,19,18)         -165.9239         estimate D2E/DX2                !
 ! D110  D(8,9,10,5)           -25.6924         estimate D2E/DX2                !
 ! D111  D(8,9,10,16)          153.8679         estimate D2E/DX2                !
 ! D112  D(11,9,10,5)          152.3844         estimate D2E/DX2                !
 ! D113  D(11,9,10,16)         -28.0554         estimate D2E/DX2                !
 ! D114  D(8,9,11,12)          114.2107         estimate D2E/DX2                !
 ! D115  D(8,9,11,13)          -68.0066         estimate D2E/DX2                !
 ! D116  D(10,9,11,12)         -63.8237         estimate D2E/DX2                !
 ! D117  D(10,9,11,13)         113.9589         estimate D2E/DX2                !
 ! D118  D(9,11,13,14)         146.0241         estimate D2E/DX2                !
 ! D119  D(9,11,13,15)         -92.2502         estimate D2E/DX2                !
 ! D120  D(9,11,13,36)          25.7299         estimate D2E/DX2                !
 ! D121  D(12,11,13,14)        -36.287          estimate D2E/DX2                !
 ! D122  D(12,11,13,15)         85.4387         estimate D2E/DX2                !
 ! D123  D(12,11,13,36)       -156.5812         estimate D2E/DX2                !
 ! D124  D(11,13,14,37)         54.8914         estimate D2E/DX2                !
 ! D125  D(11,13,14,38)        172.1963         estimate D2E/DX2                !
 ! D126  D(11,13,14,62)        -67.4325         estimate D2E/DX2                !
 ! D127  D(15,13,14,37)        -65.5829         estimate D2E/DX2                !
 ! D128  D(15,13,14,38)         51.722          estimate D2E/DX2                !
 ! D129  D(15,13,14,62)        172.0932         estimate D2E/DX2                !
 ! D130  D(36,13,14,37)        175.7354         estimate D2E/DX2                !
 ! D131  D(36,13,14,38)        -66.9597         estimate D2E/DX2                !
 ! D132  D(36,13,14,62)         53.4115         estimate D2E/DX2                !
 ! D133  D(11,13,15,39)         59.4717         estimate D2E/DX2                !
 ! D134  D(11,13,15,40)        179.248          estimate D2E/DX2                !
 ! D135  D(11,13,15,41)        -60.2137         estimate D2E/DX2                !
 ! D136  D(14,13,15,39)       -178.1114         estimate D2E/DX2                !
 ! D137  D(14,13,15,40)        -58.335          estimate D2E/DX2                !
 ! D138  D(14,13,15,41)         62.2032         estimate D2E/DX2                !
 ! D139  D(36,13,15,39)        -59.2712         estimate D2E/DX2                !
 ! D140  D(36,13,15,40)         60.5052         estimate D2E/DX2                !
 ! D141  D(36,13,15,41)       -178.9565         estimate D2E/DX2                !
 ! D142  D(13,14,62,63)         63.003          estimate D2E/DX2                !
 ! D143  D(13,14,62,64)       -177.4453         estimate D2E/DX2                !
 ! D144  D(13,14,62,65)        -58.0274         estimate D2E/DX2                !
 ! D145  D(37,14,62,63)        -60.235          estimate D2E/DX2                !
 ! D146  D(37,14,62,64)         59.3167         estimate D2E/DX2                !
 ! D147  D(37,14,62,65)        178.7347         estimate D2E/DX2                !
 ! D148  D(38,14,62,63)       -175.9521         estimate D2E/DX2                !
 ! D149  D(38,14,62,64)        -56.4004         estimate D2E/DX2                !
 ! D150  D(38,14,62,65)         63.0176         estimate D2E/DX2                !
 ! D151  D(7,17,18,19)         -32.5348         estimate D2E/DX2                !
 ! D152  D(7,17,18,28)          85.3144         estimate D2E/DX2                !
 ! D153  D(7,17,18,29)        -151.0469         estimate D2E/DX2                !
 ! D154  D(20,17,18,19)         77.29           estimate D2E/DX2                !
 ! D155  D(20,17,18,28)       -164.8608         estimate D2E/DX2                !
 ! D156  D(20,17,18,29)        -41.2221         estimate D2E/DX2                !
 ! D157  D(30,17,18,19)       -154.6906         estimate D2E/DX2                !
 ! D158  D(30,17,18,28)        -36.8414         estimate D2E/DX2                !
 ! D159  D(30,17,18,29)         86.7974         estimate D2E/DX2                !
 ! D160  D(7,17,20,3)          -36.7378         estimate D2E/DX2                !
 ! D161  D(7,17,20,42)          82.8347         estimate D2E/DX2                !
 ! D162  D(7,17,20,43)        -157.9149         estimate D2E/DX2                !
 ! D163  D(18,17,20,3)        -146.9674         estimate D2E/DX2                !
 ! D164  D(18,17,20,42)        -27.3949         estimate D2E/DX2                !
 ! D165  D(18,17,20,43)         91.8555         estimate D2E/DX2                !
 ! D166  D(30,17,20,3)          84.3158         estimate D2E/DX2                !
 ! D167  D(30,17,20,42)       -156.1117         estimate D2E/DX2                !
 ! D168  D(30,17,20,43)        -36.8613         estimate D2E/DX2                !
 ! D169  D(17,18,19,8)          16.875          estimate D2E/DX2                !
 ! D170  D(28,18,19,8)        -104.107          estimate D2E/DX2                !
 ! D171  D(29,18,19,8)         138.9154         estimate D2E/DX2                !
 ! D172  D(17,18,28,53)       -179.4139         estimate D2E/DX2                !
 ! D173  D(17,18,28,54)         60.2206         estimate D2E/DX2                !
 ! D174  D(17,18,28,55)        -61.9551         estimate D2E/DX2                !
 ! D175  D(19,18,28,53)        -63.0698         estimate D2E/DX2                !
 ! D176  D(19,18,28,54)        176.5647         estimate D2E/DX2                !
 ! D177  D(19,18,28,55)         54.3891         estimate D2E/DX2                !
 ! D178  D(29,18,28,53)         53.9723         estimate D2E/DX2                !
 ! D179  D(29,18,28,54)        -66.3932         estimate D2E/DX2                !
 ! D180  D(29,18,28,55)        171.4312         estimate D2E/DX2                !
 ! D181  D(17,18,29,56)       -178.0873         estimate D2E/DX2                !
 ! D182  D(17,18,29,57)        -57.5557         estimate D2E/DX2                !
 ! D183  D(17,18,29,58)         64.7656         estimate D2E/DX2                !
 ! D184  D(19,18,29,56)         64.9766         estimate D2E/DX2                !
 ! D185  D(19,18,29,57)       -174.4919         estimate D2E/DX2                !
 ! D186  D(19,18,29,58)        -52.1705         estimate D2E/DX2                !
 ! D187  D(28,18,29,56)        -51.9513         estimate D2E/DX2                !
 ! D188  D(28,18,29,57)         68.5802         estimate D2E/DX2                !
 ! D189  D(28,18,29,58)       -169.0984         estimate D2E/DX2                !
 ! D190  D(5,22,23,24)          40.0614         estimate D2E/DX2                !
 ! D191  D(5,22,23,25)         162.3717         estimate D2E/DX2                !
 ! D192  D(5,22,23,47)         -73.6744         estimate D2E/DX2                !
 ! D193  D(45,22,23,24)        162.3106         estimate D2E/DX2                !
 ! D194  D(45,22,23,25)        -75.3791         estimate D2E/DX2                !
 ! D195  D(45,22,23,47)         48.5749         estimate D2E/DX2                !
 ! D196  D(46,22,23,24)        -77.6486         estimate D2E/DX2                !
 ! D197  D(46,22,23,25)         44.6617         estimate D2E/DX2                !
 ! D198  D(46,22,23,47)        168.6156         estimate D2E/DX2                !
 ! D199  D(22,23,24,4)         -28.4721         estimate D2E/DX2                !
 ! D200  D(25,23,24,4)        -153.3597         estimate D2E/DX2                !
 ! D201  D(47,23,24,4)          87.8462         estimate D2E/DX2                !
 ! D202  D(22,23,25,26)        -70.3081         estimate D2E/DX2                !
 ! D203  D(22,23,25,27)        109.8877         estimate D2E/DX2                !
 ! D204  D(24,23,25,26)         48.5546         estimate D2E/DX2                !
 ! D205  D(24,23,25,27)       -131.2496         estimate D2E/DX2                !
 ! D206  D(47,23,25,26)        165.4433         estimate D2E/DX2                !
 ! D207  D(47,23,25,27)        -14.3609         estimate D2E/DX2                !
 ! D208  D(23,25,26,48)        -66.8051         estimate D2E/DX2                !
 ! D209  D(23,25,26,49)         54.1958         estimate D2E/DX2                !
 ! D210  D(23,25,26,50)        173.8547         estimate D2E/DX2                !
 ! D211  D(27,25,26,48)        113.0001         estimate D2E/DX2                !
 ! D212  D(27,25,26,49)       -125.999          estimate D2E/DX2                !
 ! D213  D(27,25,26,50)         -6.34           estimate D2E/DX2                !
 ! D214  D(23,25,27,51)         -0.0807         estimate D2E/DX2                !
 ! D215  D(23,25,27,52)        179.7941         estimate D2E/DX2                !
 ! D216  D(26,25,27,51)       -179.8821         estimate D2E/DX2                !
 ! D217  D(26,25,27,52)         -0.0072         estimate D2E/DX2                !
 --------------------------------------------------------------------------------
 Trust Radius=3.00D-01 FncErr=1.00D-07 GrdErr=1.00D-06
 Number of steps in this run=    390 maximum allowed number of steps=    390.
 GradGradGradGradGradGradGradGradGradGradGradGradGradGradGradGradGradGrad

 Stoichiometry    C26H34O5
 Framework group  C1[X(C26H34O5)]
 Deg. of freedom   189
 Full point group                 C1      NOp   1
 Largest Abelian subgroup         C1      NOp   1
 Largest concise Abelian subgroup C1      NOp   1
                         Standard orientation:                         
 ---------------------------------------------------------------------
 Center     Atomic      Atomic             Coordinates (Angstroms)
 Number     Number       Type             X           Y           Z
 ---------------------------------------------------------------------
      1          6           0       -1.442467    0.103523    3.149820
      2          6           0       -1.294790    1.346556    2.672199
      3          6           0       -1.393215    1.655847    1.199785
      4          6           0       -1.441308    0.437681    0.232608
      5          6           0       -1.346848   -0.986811    0.826186
      6          6           0       -1.746578   -1.094216    2.314578
      7          6           0       -0.343142    0.723443   -0.812966
      8          6           0        1.008484    0.193561   -0.482326
      9          6           0        1.198416   -0.918041    0.233597
     10          6           0        0.011132   -1.687292    0.659816
     11          6           0        2.563854   -1.337041    0.621733
     12          8           0        2.873063   -1.338329    1.813324
     13          6           0        3.510313   -1.799208   -0.483681
     14          6           0        4.965466   -1.409529   -0.180651
     15          6           0        3.381851   -3.315723   -0.621822
     16          8           0        0.125308   -2.896754    0.870975
     17          6           0       -0.053066    2.208117   -0.778693
     18          6           0        1.399851    2.281491   -1.292821
     19          8           0        2.037018    1.062246   -0.833494
     20          6           0       -0.226287    2.533159    0.711329
     21          8           0       -0.713269    0.270509   -2.103385
     22          6           0       -2.366666   -1.751909   -0.030076
     23          6           0       -3.439980   -0.705552   -0.264923
     24          8           0       -2.719144    0.514029   -0.491999
     25          6           0       -4.381459   -0.999753   -1.405847
     26          6           0       -3.862163   -0.919400   -2.813506
     27          6           0       -5.665508   -1.324994   -1.173531
     28          6           0        1.488576    2.318025   -2.827030
     29          6           0        2.188280    3.473645   -0.739772
     30          1           0       -0.742316    2.800130   -1.391663
     31          1           0       -2.315225    2.240137    1.064194
     32          6           0       -1.100765    2.509819    3.610334
     33          1           0       -1.400844   -0.069147    4.224443
     34          1           0       -1.250311   -1.955087    2.781090
     35          1           0       -2.819963   -1.291614    2.427198
     36          1           0        3.215865   -1.339848   -1.434549
     37          1           0        5.270537   -1.789737    0.801930
     38          1           0        5.628099   -1.875955   -0.920094
     39          1           0        2.354146   -3.600970   -0.870982
     40          1           0        4.035222   -3.692774   -1.415405
     41          1           0        3.647985   -3.824811    0.311211
     42          1           0        0.680395    2.301811    1.283853
     43          1           0       -0.434630    3.599323    0.856346
     44          1           0       -1.652230    0.526266   -2.198227
     45          1           0       -2.762332   -2.651458    0.454957
     46          1           0       -1.906419   -2.071016   -0.973532
     47          1           0       -4.019615   -0.552079    0.654324
     48          1           0       -3.605677    0.113386   -3.067471
     49          1           0       -2.976209   -1.547238   -2.942936
     50          1           0       -4.605566   -1.257449   -3.543893
     51          1           0       -6.065806   -1.387995   -0.166126
     52          1           0       -6.354902   -1.535996   -1.985763
     53          1           0        2.535469    2.359383   -3.150848
     54          1           0        0.968153    3.190814   -3.234365
     55          1           0        1.077602    1.418284   -3.292563
     56          1           0        3.200161    3.497624   -1.161725
     57          1           0        1.694966    4.422122   -0.975408
     58          1           0        2.330181    3.407437    0.343336
     59          1           0       -1.189255    2.211504    4.660517
     60          1           0       -0.110507    2.956189    3.478437
     61          1           0       -1.858752    3.277439    3.423037
     62          6           0        5.192989    0.095939   -0.221846
     63          1           0        4.609124    0.611608    0.546400
     64          1           0        6.249647    0.320956   -0.045308
     65          1           0        4.919397    0.507139   -1.198752
 ---------------------------------------------------------------------
 Rotational constants (GHZ):      0.2132835      0.1238912      0.1172196
 Standard basis: 6-31G(d) (6D, 7F)
 There are   533 symmetry adapted basis functions of A   symmetry.
 Integral buffers will be    131072 words long.
 Raffenetti 2 integral format.
 Two-electron integral symmetry is turned on.
   533 basis functions,  1004 primitive gaussians,   533 cartesian basis functions
   115 alpha electrons      115 beta electrons
       nuclear repulsion energy      3530.0652498693 Hartrees.
 NAtoms=   65 NActive=   65 NUniq=   65 SFac= 1.00D+00 NAtFMM=   50 NAOKFM=T Big=T
 One-electron integrals computed using PRISM.
 NBasis=   533 RedAO= T  NBF=   533
 NBsUse=   533 1.00D-06 NBFU=   533
 Harris functional with IExCor=  402 diagonalized for initial guess.
 ExpMin= 1.61D-01 ExpMax= 5.48D+03 ExpMxC= 8.25D+02 IAcc=1 IRadAn=         1 AccDes= 0.00D+00
 HarFok:  IExCor=  402 AccDes= 0.00D+00 IRadAn=         1 IDoV= 1
 ScaDFX=  1.000000  1.000000  1.000000  1.000000
 FoFCou: FMM=F IPFlag=           0 FMFlag=      100000 FMFlg1=        2001
         NFxFlg=           0 DoJE=T BraDBF=F KetDBF=T FulRan=T
         Omega=  0.000000  0.000000  1.000000  0.000000  0.000000 ICntrl=     500 IOpCl=  0
         NMat0=    1 NMatS0=    1 NMatT0=    0 NMatD0=    1 NMtDS0=    0 NMtDT0=    0
         I1Cent=           4 NGrid=           0.
 Petite list used in FoFCou.
 Initial guess orbital symmetries:
       Occupied  (A) (A) (A) (A) (A) (A) (A) (A) (A) (A) (A) (A)
                 (A) (A) (A) (A) (A) (A) (A) (A) (A) (A) (A) (A)
                 (A) (A) (A) (A) (A) (A) (A) (A) (A) (A) (A) (A)
                 (A) (A) (A) (A) (A) (A) (A) (A) (A) (A) (A) (A)
                 (A) (A) (A) (A) (A) (A) (A) (A) (A) (A) (A) (A)
                 (A) (A) (A) (A) (A) (A) (A) (A) (A) (A) (A) (A)
                 (A) (A) (A) (A) (A) (A) (A) (A) (A) (A) (A) (A)
                 (A) (A) (A) (A) (A) (A) (A) (A) (A) (A) (A) (A)
                 (A) (A) (A) (A) (A) (A) (A) (A) (A) (A) (A) (A)
                 (A) (A) (A) (A) (A) (A) (A)
       Virtual   (A) (A) (A) (A) (A) (A) (A) (A) (A) (A) (A) (A)
                 (A) (A) (A) (A) (A) (A) (A) (A) (A) (A) (A) (A)
                 (A) (A) (A) (A) (A) (A) (A) (A) (A) (A) (A) (A)
                 (A) (A) (A) (A) (A) (A) (A) (A) (A) (A) (A) (A)
                 (A) (A) (A) (A) (A) (A) (A) (A) (A) (A) (A) (A)
                 (A) (A) (A) (A) (A) (A) (A) (A) (A) (A) (A) (A)
                 (A) (A) (A) (A) (A) (A) (A) (A) (A) (A) (A) (A)
                 (A) (A) (A) (A) (A) (A) (A) (A) (A) (A) (A) (A)
                 (A) (A) (A) (A) (A) (A) (A) (A) (A) (A) (A) (A)
                 (A) (A) (A) (A) (A) (A) (A) (A) (A) (A) (A) (A)
                 (A) (A) (A) (A) (A) (A) (A) (A) (A) (A) (A) (A)
                 (A) (A) (A) (A) (A) (A) (A) (A) (A) (A) (A) (A)
                 (A) (A) (A) (A) (A) (A) (A) (A) (A) (A) (A) (A)
                 (A) (A) (A) (A) (A) (A) (A) (A) (A) (A) (A) (A)
                 (A) (A) (A) (A) (A) (A) (A) (A) (A) (A) (A) (A)
                 (A) (A) (A) (A) (A) (A) (A) (A) (A) (A) (A) (A)
                 (A) (A) (A) (A) (A) (A) (A) (A) (A) (A) (A) (A)
                 (A) (A) (A) (A) (A) (A) (A) (A) (A) (A) (A) (A)
                 (A) (A) (A) (A) (A) (A) (A) (A) (A) (A) (A) (A)
                 (A) (A) (A) (A) (A) (A) (A) (A) (A) (A) (A) (A)
                 (A) (A) (A) (A) (A) (A) (A) (A) (A) (A) (A) (A)
                 (A) (A) (A) (A) (A) (A) (A) (A) (A) (A) (A) (A)
                 (A) (A) (A) (A) (A) (A) (A) (A) (A) (A) (A) (A)
                 (A) (A) (A) (A) (A) (A) (A) (A) (A) (A) (A) (A)
                 (A) (A) (A) (A) (A) (A) (A) (A) (A) (A) (A) (A)
                 (A) (A) (A) (A) (A) (A) (A) (A) (A) (A) (A) (A)
                 (A) (A) (A) (A) (A) (A) (A) (A) (A) (A) (A) (A)
                 (A) (A) (A) (A) (A) (A) (A) (A) (A) (A) (A) (A)
                 (A) (A) (A) (A) (A) (A) (A) (A) (A) (A) (A) (A)
                 (A) (A) (A) (A) (A) (A) (A) (A) (A) (A) (A) (A)
                 (A) (A) (A) (A) (A) (A) (A) (A) (A) (A) (A) (A)
                 (A) (A) (A) (A) (A) (A) (A) (A) (A) (A) (A) (A)
                 (A) (A) (A) (A) (A) (A) (A) (A) (A) (A) (A) (A)
                 (A) (A) (A) (A) (A) (A) (A) (A) (A) (A) (A) (A)
                 (A) (A) (A) (A) (A) (A) (A) (A) (A) (A)
 The electronic state of the initial guess is 1-A.
 Requested convergence on RMS density matrix=1.00D-08 within 128 cycles.
 Requested convergence on MAX density matrix=1.00D-06.
 Requested convergence on             energy=1.00D-06.
 No special actions if energy rises.
 Integral accuracy reduced to 1.0D-05 until final iterations.
 Initial convergence to 1.0D-05 achieved.  Increase integral accuracy.
 SCF Done:  E(RB3LYP) =  -1387.30236083     A.U. after   16 cycles
             Convg  =    0.3310D-08             -V/T =  2.0091

 **********************************************************************

            Population analysis using the SCF density.

 **********************************************************************

 Orbital symmetries:
       Occupied  (A) (A) (A) (A) (A) (A) (A) (A) (A) (A) (A) (A)
                 (A) (A) (A) (A) (A) (A) (A) (A) (A) (A) (A) (A)
                 (A) (A) (A) (A) (A) (A) (A) (A) (A) (A) (A) (A)
                 (A) (A) (A) (A) (A) (A) (A) (A) (A) (A) (A) (A)
                 (A) (A) (A) (A) (A) (A) (A) (A) (A) (A) (A) (A)
                 (A) (A) (A) (A) (A) (A) (A) (A) (A) (A) (A) (A)
                 (A) (A) (A) (A) (A) (A) (A) (A) (A) (A) (A) (A)
                 (A) (A) (A) (A) (A) (A) (A) (A) (A) (A) (A) (A)
                 (A) (A) (A) (A) (A) (A) (A) (A) (A) (A) (A) (A)
                 (A) (A) (A) (A) (A) (A) (A)
       Virtual   (A) (A) (A) (A) (A) (A) (A) (A) (A) (A) (A) (A)
                 (A) (A) (A) (A) (A) (A) (A) (A) (A) (A) (A) (A)
                 (A) (A) (A) (A) (A) (A) (A) (A) (A) (A) (A) (A)
                 (A) (A) (A) (A) (A) (A) (A) (A) (A) (A) (A) (A)
                 (A) (A) (A) (A) (A) (A) (A) (A) (A) (A) (A) (A)
                 (A) (A) (A) (A) (A) (A) (A) (A) (A) (A) (A) (A)
                 (A) (A) (A) (A) (A) (A) (A) (A) (A) (A) (A) (A)
                 (A) (A) (A) (A) (A) (A) (A) (A) (A) (A) (A) (A)
                 (A) (A) (A) (A) (A) (A) (A) (A) (A) (A) (A) (A)
                 (A) (A) (A) (A) (A) (A) (A) (A) (A) (A) (A) (A)
                 (A) (A) (A) (A) (A) (A) (A) (A) (A) (A) (A) (A)
                 (A) (A) (A) (A) (A) (A) (A) (A) (A) (A) (A) (A)
                 (A) (A) (A) (A) (A) (A) (A) (A) (A) (A) (A) (A)
                 (A) (A) (A) (A) (A) (A) (A) (A) (A) (A) (A) (A)
                 (A) (A) (A) (A) (A) (A) (A) (A) (A) (A) (A) (A)
                 (A) (A) (A) (A) (A) (A) (A) (A) (A) (A) (A) (A)
                 (A) (A) (A) (A) (A) (A) (A) (A) (A) (A) (A) (A)
                 (A) (A) (A) (A) (A) (A) (A) (A) (A) (A) (A) (A)
                 (A) (A) (A) (A) (A) (A) (A) (A) (A) (A) (A) (A)
                 (A) (A) (A) (A) (A) (A) (A) (A) (A) (A) (A) (A)
                 (A) (A) (A) (A) (A) (A) (A) (A) (A) (A) (A) (A)
                 (A) (A) (A) (A) (A) (A) (A) (A) (A) (A) (A) (A)
                 (A) (A) (A) (A) (A) (A) (A) (A) (A) (A) (A) (A)
                 (A) (A) (A) (A) (A) (A) (A) (A) (A) (A) (A) (A)
                 (A) (A) (A) (A) (A) (A) (A) (A) (A) (A) (A) (A)
                 (A) (A) (A) (A) (A) (A) (A) (A) (A) (A) (A) (A)
                 (A) (A) (A) (A) (A) (A) (A) (A) (A) (A) (A) (A)
                 (A) (A) (A) (A) (A) (A) (A) (A) (A) (A) (A) (A)
                 (A) (A) (A) (A) (A) (A) (A) (A) (A) (A) (A) (A)
                 (A) (A) (A) (A) (A) (A) (A) (A) (A) (A) (A) (A)
                 (A) (A) (A) (A) (A) (A) (A) (A) (A) (A) (A) (A)
                 (A) (A) (A) (A) (A) (A) (A) (A) (A) (A) (A) (A)
                 (A) (A) (A) (A) (A) (A) (A) (A) (A) (A) (A) (A)
                 (A) (A) (A) (A) (A) (A) (A) (A) (A) (A) (A) (A)
                 (A) (A) (A) (A) (A) (A) (A) (A) (A) (A)
 The electronic state is 1-A.
 Alpha  occ. eigenvalues --  -19.19825 -19.16713 -19.15512 -19.13431 -19.13196
 Alpha  occ. eigenvalues --  -10.27878 -10.26922 -10.26911 -10.26262 -10.26022
 Alpha  occ. eigenvalues --  -10.25667 -10.24739 -10.21677 -10.20501 -10.20208
 Alpha  occ. eigenvalues --  -10.20206 -10.19516 -10.19514 -10.19319 -10.19293
 Alpha  occ. eigenvalues --  -10.19204 -10.18952 -10.18763 -10.18529 -10.18437
 Alpha  occ. eigenvalues --  -10.18372 -10.18058 -10.17901 -10.16868 -10.16849
 Alpha  occ. eigenvalues --  -10.15865  -1.08690  -1.05958  -1.03288  -1.02523
 Alpha  occ. eigenvalues --   -1.02179  -0.87381  -0.84073  -0.82768  -0.81727
 Alpha  occ. eigenvalues --   -0.80445  -0.79806  -0.77078  -0.74349  -0.73732
 Alpha  occ. eigenvalues --   -0.72411  -0.71680  -0.69763  -0.69546  -0.67976
 Alpha  occ. eigenvalues --   -0.65103  -0.64473  -0.62839  -0.61952  -0.60904
 Alpha  occ. eigenvalues --   -0.59445  -0.59124  -0.57450  -0.55173  -0.53736
 Alpha  occ. eigenvalues --   -0.53325  -0.52170  -0.50764  -0.50513  -0.49378
 Alpha  occ. eigenvalues --   -0.48841  -0.47755  -0.46820  -0.46446  -0.45610
 Alpha  occ. eigenvalues --   -0.45092  -0.44514  -0.43980  -0.43633  -0.43384
 Alpha  occ. eigenvalues --   -0.43237  -0.42298  -0.42101  -0.41647  -0.41442
 Alpha  occ. eigenvalues --   -0.41144  -0.40773  -0.40428  -0.40397  -0.40009
 Alpha  occ. eigenvalues --   -0.39363  -0.38828  -0.38620  -0.38309  -0.38165
 Alpha  occ. eigenvalues --   -0.37531  -0.37405  -0.37114  -0.36847  -0.36386
 Alpha  occ. eigenvalues --   -0.36062  -0.35567  -0.35097  -0.34542  -0.34306
 Alpha  occ. eigenvalues --   -0.33879  -0.33606  -0.32902  -0.32600  -0.32458
 Alpha  occ. eigenvalues --   -0.31882  -0.31404  -0.30920  -0.28056  -0.27029
 Alpha  occ. eigenvalues --   -0.25549  -0.25032  -0.24523  -0.23502  -0.23327
 Alpha virt. eigenvalues --   -0.05204  -0.02201   0.00717   0.02395   0.04096
 Alpha virt. eigenvalues --    0.06849   0.07950   0.08646   0.09072   0.09802
 Alpha virt. eigenvalues --    0.10463   0.10918   0.11398   0.11676   0.12571
 Alpha virt. eigenvalues --    0.12757   0.13097   0.13437   0.13809   0.14061
 Alpha virt. eigenvalues --    0.14248   0.14552   0.14959   0.15226   0.16050
 Alpha virt. eigenvalues --    0.16307   0.16657   0.17299   0.17495   0.17750
 Alpha virt. eigenvalues --    0.18102   0.18186   0.18308   0.18872   0.19103
 Alpha virt. eigenvalues --    0.19118   0.19745   0.19875   0.20038   0.20289
 Alpha virt. eigenvalues --    0.20803   0.21186   0.21489   0.21916   0.22504
 Alpha virt. eigenvalues --    0.22686   0.23212   0.23814   0.24589   0.24640
 Alpha virt. eigenvalues --    0.24729   0.25442   0.25706   0.26324   0.26667
 Alpha virt. eigenvalues --    0.27035   0.27691   0.28011   0.29015   0.29719
 Alpha virt. eigenvalues --    0.30763   0.31490   0.32788   0.33059   0.34645
 Alpha virt. eigenvalues --    0.35028   0.36200   0.37357   0.38663   0.41123
 Alpha virt. eigenvalues --    0.42772   0.45336   0.46681   0.47661   0.48096
 Alpha virt. eigenvalues --    0.49775   0.50061   0.50772   0.51586   0.51977
 Alpha virt. eigenvalues --    0.52199   0.52534   0.52807   0.52962   0.53218
 Alpha virt. eigenvalues --    0.54238   0.54673   0.54958   0.55873   0.56404
 Alpha virt. eigenvalues --    0.57233   0.57433   0.57714   0.58562   0.59084
 Alpha virt. eigenvalues --    0.59290   0.60305   0.60880   0.61681   0.61770
 Alpha virt. eigenvalues --    0.62687   0.63187   0.63269   0.64281   0.64553
 Alpha virt. eigenvalues --    0.65834   0.65849   0.66296   0.66775   0.67150
 Alpha virt. eigenvalues --    0.67957   0.68105   0.68440   0.69175   0.69440
 Alpha virt. eigenvalues --    0.69697   0.70740   0.71699   0.73087   0.73562
 Alpha virt. eigenvalues --    0.74263   0.75149   0.75321   0.75683   0.76725
 Alpha virt. eigenvalues --    0.77527   0.78160   0.78279   0.78673   0.79603
 Alpha virt. eigenvalues --    0.80342   0.80893   0.81551   0.81975   0.82408
 Alpha virt. eigenvalues --    0.82811   0.83157   0.83912   0.84218   0.84690
 Alpha virt. eigenvalues --    0.85133   0.85524   0.85867   0.86708   0.87201
 Alpha virt. eigenvalues --    0.87513   0.87803   0.88691   0.89025   0.89272
 Alpha virt. eigenvalues --    0.89622   0.89763   0.89926   0.90334   0.90548
 Alpha virt. eigenvalues --    0.90965   0.91220   0.91979   0.92051   0.92245
 Alpha virt. eigenvalues --    0.92712   0.93030   0.93701   0.94604   0.94949
 Alpha virt. eigenvalues --    0.95324   0.95674   0.96412   0.96898   0.97174
 Alpha virt. eigenvalues --    0.97484   0.98093   0.98975   0.99078   1.00038
 Alpha virt. eigenvalues --    1.00513   1.01511   1.01887   1.02876   1.03968
 Alpha virt. eigenvalues --    1.04041   1.05123   1.06163   1.06781   1.08092
 Alpha virt. eigenvalues --    1.08587   1.10005   1.10396   1.11425   1.13092
 Alpha virt. eigenvalues --    1.13380   1.14142   1.15668   1.16376   1.17660
 Alpha virt. eigenvalues --    1.18065   1.18725   1.19301   1.19524   1.21525
 Alpha virt. eigenvalues --    1.22298   1.22823   1.24176   1.24761   1.26771
 Alpha virt. eigenvalues --    1.27361   1.28760   1.29780   1.30063   1.32646
 Alpha virt. eigenvalues --    1.34273   1.34994   1.38870   1.39275   1.40786
 Alpha virt. eigenvalues --    1.41474   1.42438   1.42889   1.45446   1.46774
 Alpha virt. eigenvalues --    1.47506   1.49254   1.49668   1.50712   1.51944
 Alpha virt. eigenvalues --    1.53432   1.54235   1.55627   1.56022   1.56982
 Alpha virt. eigenvalues --    1.58498   1.60718   1.61877   1.62861   1.64611
 Alpha virt. eigenvalues --    1.65206   1.66238   1.67233   1.68931   1.69207
 Alpha virt. eigenvalues --    1.69664   1.72214   1.72603   1.73069   1.73532
 Alpha virt. eigenvalues --    1.74626   1.75171   1.76815   1.77580   1.78535
 Alpha virt. eigenvalues --    1.78929   1.79824   1.81202   1.81308   1.82494
 Alpha virt. eigenvalues --    1.82664   1.83179   1.83669   1.85133   1.85770
 Alpha virt. eigenvalues --    1.86382   1.86777   1.87827   1.88151   1.88405
 Alpha virt. eigenvalues --    1.89535   1.90058   1.90621   1.90681   1.92040
 Alpha virt. eigenvalues --    1.92207   1.92516   1.93510   1.93793   1.94730
 Alpha virt. eigenvalues --    1.95388   1.96525   1.97456   1.97900   1.98153
 Alpha virt. eigenvalues --    1.98968   1.99130   1.99844   2.00305   2.02401
 Alpha virt. eigenvalues --    2.02859   2.03647   2.04603   2.05114   2.05859
 Alpha virt. eigenvalues --    2.06213   2.07232   2.07430   2.08707   2.09387
 Alpha virt. eigenvalues --    2.09544   2.10942   2.11889   2.13219   2.13763
 Alpha virt. eigenvalues --    2.14928   2.15800   2.16327   2.19000   2.19664
 Alpha virt. eigenvalues --    2.20164   2.20603   2.21607   2.22277   2.22805
 Alpha virt. eigenvalues --    2.23400   2.23825   2.25365   2.25840   2.27081
 Alpha virt. eigenvalues --    2.27797   2.28767   2.29723   2.30446   2.31629
 Alpha virt. eigenvalues --    2.32727   2.33855   2.34207   2.34858   2.35805
 Alpha virt. eigenvalues --    2.36540   2.37077   2.37747   2.38671   2.39173
 Alpha virt. eigenvalues --    2.39945   2.41076   2.42010   2.42589   2.43587
 Alpha virt. eigenvalues --    2.43965   2.44904   2.46420   2.47666   2.48484
 Alpha virt. eigenvalues --    2.49857   2.50539   2.50923   2.53881   2.55375
 Alpha virt. eigenvalues --    2.55536   2.57304   2.57896   2.59331   2.60493
 Alpha virt. eigenvalues --    2.61636   2.62412   2.63031   2.64926   2.66122
 Alpha virt. eigenvalues --    2.66630   2.68613   2.69669   2.70987   2.72489
 Alpha virt. eigenvalues --    2.72852   2.74184   2.75898   2.76998   2.78650
 Alpha virt. eigenvalues --    2.80141   2.81438   2.81734   2.84111   2.85744
 Alpha virt. eigenvalues --    2.88796   2.90176   2.92687   2.93665   2.95616
 Alpha virt. eigenvalues --    2.96395   2.99333   2.99907   3.02741   3.02981
 Alpha virt. eigenvalues --    3.04973   3.06814   3.13743   3.16752   3.19450
 Alpha virt. eigenvalues --    3.22939   3.28849   4.02882   4.09596   4.12507
 Alpha virt. eigenvalues --    4.13116   4.14962   4.15801   4.18250   4.20399
 Alpha virt. eigenvalues --    4.22001   4.23689   4.24625   4.27849   4.30246
 Alpha virt. eigenvalues --    4.32434   4.36004   4.38018   4.40349   4.44648
 Alpha virt. eigenvalues --    4.47710   4.50138   4.52116   4.55857   4.60145
 Alpha virt. eigenvalues --    4.60990   4.64425   4.69036   4.70814   4.79479
 Alpha virt. eigenvalues --    4.92364   4.98846   5.20524
          Condensed to atoms (all electrons):
 Mulliken atomic charges:
              1
     1  C   -0.186906
     2  C    0.190893
     3  C   -0.188373
     4  C    0.325196
     5  C   -0.036652
     6  C   -0.337215
     7  C    0.197192
     8  C    0.397017
     9  C   -0.080377
    10  C    0.414510
    11  C    0.424447
    12  O   -0.463457
    13  C   -0.150904
    14  C   -0.247381
    15  C   -0.454431
    16  O   -0.494098
    17  C   -0.160558
    18  C    0.311708
    19  O   -0.539848
    20  C   -0.318484
    21  O   -0.667240
    22  C   -0.311262
    23  C    0.086920
    24  O   -0.590154
    25  C    0.226713
    26  C   -0.531755
    27  C   -0.401498
    28  C   -0.462758
    29  C   -0.464660
    30  H    0.143167
    31  H    0.163153
    32  C   -0.517149
    33  H    0.123761
    34  H    0.183768
    35  H    0.153021
    36  H    0.140416
    37  H    0.154229
    38  H    0.124478
    39  H    0.163376
    40  H    0.145272
    41  H    0.163173
    42  H    0.168305
    43  H    0.148738
    44  H    0.423366
    45  H    0.169619
    46  H    0.167301
    47  H    0.133330
    48  H    0.159519
    49  H    0.172432
    50  H    0.158716
    51  H    0.139018
    52  H    0.141655
    53  H    0.149317
    54  H    0.140415
    55  H    0.183628
    56  H    0.159673
    57  H    0.150358
    58  H    0.160481
    59  H    0.158600
    60  H    0.159580
    61  H    0.148661
    62  C   -0.447824
    63  H    0.156643
    64  H    0.133805
    65  H    0.137417
 Sum of Mulliken atomic charges =   0.00000
 Mulliken charges with hydrogens summed into heavy atoms:
              1
     1  C   -0.063146
     2  C    0.190893
     3  C   -0.025220
     4  C    0.325196
     5  C   -0.036652
     6  C   -0.000426
     7  C    0.197192
     8  C    0.397017
     9  C   -0.080377
    10  C    0.414510
    11  C    0.424447
    12  O   -0.463457
    13  C   -0.010489
    14  C    0.031327
    15  C    0.017389
    16  O   -0.494098
    17  C   -0.017391
    18  C    0.311708
    19  O   -0.539848
    20  C   -0.001440
    21  O   -0.243874
    22  C    0.025658
    23  C    0.220251
    24  O   -0.590154
    25  C    0.226713
    26  C   -0.041088
    27  C   -0.120825
    28  C    0.010601
    29  C    0.005852
    32  C   -0.050308
    62  C   -0.019960
 Sum of Mulliken charges with hydrogens summed into heavy atoms =   0.00000
 Electronic spatial extent (au):  <R**2>=          11340.3351
 Charge=              0.0000 electrons
 Dipole moment (field-independent basis, Debye):
    X=             -3.0638    Y=              3.9967    Z=             -1.9469  Tot=              5.3991
 Quadrupole moment (field-independent basis, Debye-Ang):
   XX=           -181.9158   YY=           -183.5742   ZZ=           -183.3474
   XY=              5.5510   XZ=             -7.0350   YZ=              4.0491
 Traceless Quadrupole moment (field-independent basis, Debye-Ang):
   XX=              1.0300   YY=             -0.6284   ZZ=             -0.4016
   XY=              5.5510   XZ=             -7.0350   YZ=              4.0491
 Octapole moment (field-independent basis, Debye-Ang**2):
  XXX=            -23.4110  YYY=             53.7340  ZZZ=             -4.8998  XYY=              6.1148
  XXY=            -23.8854  XXZ=            -32.7495  XZZ=            -31.1413  YZZ=              7.9576
  YYZ=            -18.7685  XYZ=              7.5759
 Hexadecapole moment (field-independent basis, Debye-Ang**3):
 XXXX=          -8269.7371 YYYY=          -3784.7562 ZZZZ=          -3051.2551 XXXY=             69.1258
 XXXZ=             15.4821 YYYX=            -33.7545 YYYZ=            -14.1098 ZZZX=             14.8821
 ZZZY=            -14.4824 XXYY=          -2000.4959 XXZZ=          -1881.5828 YYZZ=          -1127.2856
 XXYZ=             34.5224 YYXZ=            -20.1105 ZZXY=             36.0387
 N-N= 3.530065249869D+03 E-N=-1.028639897866D+04  KE= 1.374825394825D+03
 Calling FoFJK, ICntrl=      2127 FMM=T ISym2X=0 I1Cent= 0 IOpClX= 0 NMat=1 NMatS=1 NMatT=0.
 ***** Axes restored to original set *****
 -------------------------------------------------------------------
 Center     Atomic                   Forces (Hartrees/Bohr)
 Number     Number              X              Y              Z
 -------------------------------------------------------------------
      1        6           0.009587323   -0.000619496    0.000153688
      2        6          -0.012672589   -0.005828127    0.002650779
      3        6          -0.001029993   -0.008711464   -0.001040981
      4        6           0.004389756   -0.004172837    0.011045756
      5        6          -0.011765587    0.003248552    0.000337176
      6        6          -0.004337246   -0.011865279   -0.001874390
      7        6           0.013054804    0.018266608    0.008848749
      8        6           0.008022707   -0.011450798   -0.016334483
      9        6           0.000465686    0.004101458    0.007452144
     10        6          -0.012158965    0.003403592   -0.018288771
     11        6          -0.014333366   -0.018759541   -0.011150894
     12        8           0.004957471    0.018155382   -0.000428427
     13        6           0.001652078   -0.006160144   -0.010813237
     14        6           0.003359895   -0.002002418   -0.001701117
     15        6          -0.009104223    0.005324254    0.006095747
     16        8           0.011785918   -0.005918907    0.009761544
     17        6           0.007121370   -0.011133235   -0.006542132
     18        6           0.032517970    0.006621715   -0.002157246
     19        8          -0.024932675    0.003510632    0.027799116
     20        6           0.011942267   -0.004942265   -0.000512330
     21        8          -0.005546216    0.007692326   -0.001630313
     22        6          -0.007576681    0.008267421    0.001060816
     23        6          -0.001959513    0.003870014    0.007957288
     24        8          -0.000899060   -0.004224663   -0.013662129
     25        6          -0.002123551    0.004346243    0.017388142
     26        6          -0.000545018    0.002077848   -0.001155522
     27        6           0.002848324   -0.004436453   -0.008655108
     28        6          -0.003314125    0.007792296   -0.004492503
     29        6          -0.004162514   -0.005869561   -0.008886264
     30        1          -0.001804640    0.001237154   -0.001493376
     31        1          -0.002816952    0.006005299   -0.000008255
     32        6          -0.001148910    0.001179086   -0.001054296
     33        1           0.001162449   -0.000500383   -0.000098539
     34        1          -0.000309395    0.007025381    0.000129438
     35        1          -0.000976783    0.005249576    0.001965119
     36        1           0.000579310   -0.000883579    0.002316950
     37        1          -0.002073505    0.001591950    0.002776814
     38        1          -0.002534729    0.001973672    0.000902560
     39        1          -0.001840966   -0.000217172    0.000159733
     40        1           0.001532128   -0.000042910   -0.000794879
     41        1           0.001094619   -0.000615537   -0.000160388
     42        1           0.000087517    0.002697017   -0.000029775
     43        1          -0.001385343   -0.002034080   -0.001437109
     44        1          -0.002982331   -0.002290846   -0.002278641
     45        1           0.001736746   -0.002252708   -0.001704721
     46        1           0.001581799   -0.000710655    0.002518056
     47        1          -0.004304506    0.001560576    0.002633067
     48        1           0.002180545    0.000965138   -0.002699124
     49        1           0.002716978    0.000465118   -0.003398752
     50        1          -0.000440045   -0.002296790    0.001043590
     51        1           0.000539762   -0.001227977    0.001289155
     52        1          -0.001756970    0.000627710   -0.000750255
     53        1           0.002072245   -0.003911028    0.000213417
     54        1           0.000430083   -0.000828711    0.000160688
     55        1          -0.000842039   -0.002696469    0.005547787
     56        1           0.000779820    0.002728326    0.001541844
     57        1          -0.000787134    0.001217664    0.000707547
     58        1          -0.000007547   -0.000069608    0.003812924
     59        1          -0.001139971    0.001812959   -0.000619331
     60        1           0.004222837   -0.001677402    0.000281896
     61        1           0.004132665   -0.001082372    0.000126303
     62        6           0.003273788   -0.002941162   -0.003426913
     63        1           0.000673374    0.000446689    0.000604199
     64        1           0.001621908   -0.000842883   -0.000852339
     65        1           0.001488947   -0.000244197    0.000850510
 -------------------------------------------------------------------
 Cartesian Forces:  Max     0.032517970 RMS     0.006649698

 GradGradGradGradGradGradGradGradGradGradGradGradGradGradGradGradGradGrad
 Berny optimization.
 Internal  Forces:  Max     0.019287039 RMS     0.003517352
 Search for a local minimum.
 Step number   1 out of a maximum of  390
 All quantities printed in internal units (Hartrees-Bohrs-Radians)
 Mixed Optimization -- RFO/linear search
 Second derivative matrix not updated -- first step.
 ITU=  0
     Eigenvalues ---    0.00274   0.00282   0.00335   0.00393   0.00411
     Eigenvalues ---    0.00439   0.00460   0.00508   0.00584   0.00650
     Eigenvalues ---    0.00658   0.00674   0.00719   0.00732   0.00829
     Eigenvalues ---    0.01029   0.01093   0.01240   0.01270   0.01437
     Eigenvalues ---    0.01470   0.01648   0.01721   0.01833   0.01939
     Eigenvalues ---    0.02536   0.02819   0.02819   0.03004   0.03141
     Eigenvalues ---    0.03529   0.03586   0.03862   0.04043   0.04085
     Eigenvalues ---    0.04140   0.04264   0.04356   0.04607   0.04725
     Eigenvalues ---    0.04801   0.04836   0.04934   0.05097   0.05244
     Eigenvalues ---    0.05304   0.05367   0.05456   0.05496   0.05501
     Eigenvalues ---    0.05503   0.05524   0.05551   0.05555   0.05631
     Eigenvalues ---    0.05645   0.05697   0.05946   0.06248   0.06548
     Eigenvalues ---    0.06710   0.06745   0.07097   0.07145   0.07197
     Eigenvalues ---    0.07226   0.07242   0.07339   0.07790   0.08356
     Eigenvalues ---    0.08378   0.08626   0.08990   0.09210   0.10029
     Eigenvalues ---    0.10114   0.10602   0.11135   0.11637   0.12215
     Eigenvalues ---    0.13171   0.14684   0.15257   0.15970   0.16000
     Eigenvalues ---    0.16000   0.16000   0.16000   0.16000   0.16000
     Eigenvalues ---    0.16000   0.16000   0.16000   0.16000   0.16000
     Eigenvalues ---    0.16000   0.16000   0.16000   0.16000   0.16000
     Eigenvalues ---    0.16000   0.16000   0.16000   0.16000   0.16000
     Eigenvalues ---    0.16034   0.16364   0.17123   0.17728   0.18381
     Eigenvalues ---    0.19885   0.21513   0.21917   0.22700   0.23370
     Eigenvalues ---    0.24370   0.24948   0.24984   0.24985   0.24999
     Eigenvalues ---    0.25000   0.25000   0.25000   0.25955   0.27277
     Eigenvalues ---    0.27343   0.27601   0.27743   0.27889   0.28312
     Eigenvalues ---    0.28768   0.28822   0.28824   0.29189   0.29590
     Eigenvalues ---    0.29715   0.30068   0.30543   0.30775   0.31533
     Eigenvalues ---    0.31658   0.32068   0.32112   0.33419   0.33688
     Eigenvalues ---    0.33934   0.33958   0.33996   0.33998   0.34016
     Eigenvalues ---    0.34018   0.34032   0.34060   0.34061   0.34095
     Eigenvalues ---    0.34125   0.34132   0.34140   0.34163   0.34171
     Eigenvalues ---    0.34206   0.34210   0.34250   0.34251   0.34267
     Eigenvalues ---    0.34269   0.34277   0.34279   0.34285   0.34313
     Eigenvalues ---    0.34333   0.34345   0.34350   0.34406   0.34442
     Eigenvalues ---    0.34561   0.34905   0.35273   0.35296   0.36412
     Eigenvalues ---    0.37586   0.42946   0.43715   0.51818   0.53701
     Eigenvalues ---    0.54669   0.56139   0.89826   0.90647
 RFO step:  Lambda=-2.27053220D-02 EMin= 2.73770806D-03
 Linear search not attempted -- first point.
 Iteration  1 RMS(Cart)=  0.08336375 RMS(Int)=  0.00165012
 Iteration  2 RMS(Cart)=  0.00307463 RMS(Int)=  0.00023263
 Iteration  3 RMS(Cart)=  0.00000470 RMS(Int)=  0.00023261
 Iteration  4 RMS(Cart)=  0.00000000 RMS(Int)=  0.00023261
 Variable       Old X    -DE/DX   Delta X   Delta X   Delta X     New X
                                 (Linear)    (Quad)   (Total)
    R1        2.53186  -0.00214   0.00000  -0.00455  -0.00461   2.52725
    R2        2.81860   0.00856   0.00000   0.02503   0.02493   2.84353
    R3        2.05829  -0.00014   0.00000  -0.00039  -0.00039   2.05790
    R4        2.84926   0.00428   0.00000   0.00975   0.00979   2.85905
    R5        2.84774   0.00282   0.00000   0.00831   0.00831   2.85605
    R6        2.94074   0.00569   0.00000   0.01424   0.01423   2.95497
    R7        2.90919   0.01131   0.00000   0.03821   0.03816   2.94735
    R8        2.07860  -0.00092   0.00000  -0.00255  -0.00255   2.07604
    R9        2.92171   0.00897   0.00000   0.02815   0.02793   2.94964
   R10        2.91585   0.00769   0.00000   0.02531   0.02544   2.94129
   R11        2.77973  -0.00533   0.00000  -0.01455  -0.01453   2.76520
   R12        2.91939   0.00202   0.00000   0.00973   0.00966   2.92905
   R13        2.90457   0.00630   0.00000   0.01508   0.01498   2.91955
   R14        2.90218   0.01037   0.00000   0.03515   0.03508   2.93727
   R15        2.07441  -0.00118   0.00000  -0.00326  -0.00326   2.07115
   R16        2.07337   0.00273   0.00000   0.00753   0.00753   2.08090
   R17        2.81372   0.01025   0.00000   0.02216   0.02180   2.83552
   R18        2.85941   0.01604   0.00000   0.05605   0.05555   2.91496
   R19        2.67737   0.00491   0.00000   0.01086   0.01086   2.68822
   R20        2.52424   0.01326   0.00000   0.02301   0.02307   2.54731
   R21        2.62924  -0.01929   0.00000  -0.04516  -0.04493   2.58431
   R22        2.79210   0.00115   0.00000   0.00013   0.00029   2.79239
   R23        2.79694   0.01839   0.00000   0.04992   0.04992   2.84686
   R24        2.33013  -0.01448   0.00000  -0.01572  -0.01572   2.31441
   R25        2.32636  -0.01850   0.00000  -0.01991  -0.01991   2.30645
   R26        2.88536  -0.00025   0.00000  -0.00078  -0.00078   2.88458
   R27        2.90376   0.00313   0.00000   0.01006   0.01006   2.91381
   R28        2.88789   0.00898   0.00000   0.02817   0.02817   2.91606
   R29        2.07170   0.00033   0.00000   0.00090   0.00090   2.07260
   R30        2.07276  -0.00060   0.00000  -0.00165  -0.00165   2.07111
   R31        2.07303   0.00091   0.00000   0.00252   0.00252   2.07555
   R32        2.87828   0.00783   0.00000   0.02423   0.02423   2.90251
   R33        2.06977   0.00053   0.00000   0.00145   0.00145   2.07122
   R34        2.06909   0.00054   0.00000   0.00148   0.00148   2.07056
   R35        2.07057  -0.00032   0.00000  -0.00089  -0.00089   2.06968
   R36        2.91574  -0.00076   0.00000   0.00859   0.00883   2.92457
   R37        2.90048   0.00482   0.00000   0.01664   0.01666   2.91715
[...]
     55          1           0        0.752695    1.338559   -3.394942
     56          1           0        3.184756    3.358950   -1.435088
     57          1           0        1.747930    4.396398   -1.379073
     58          1           0        2.242883    3.478405    0.058810
     59          1           0       -1.160212    2.589910    4.489094
     60          1           0       -0.180959    3.305935    3.200181
     61          1           0       -1.922898    3.566037    3.219310
     62          6           0        5.501316   -0.132046    0.093978
     63          1           0        4.966743    0.349980    0.918778
     64          1           0        6.572762   -0.090955    0.321238
     65          1           0        5.328444    0.460943   -0.812872
 ---------------------------------------------------------------------
 Rotational constants (GHZ):      0.2075717      0.1220797      0.1163055

 **********************************************************************

            Population analysis using the SCF density.

 **********************************************************************

 Orbital symmetries:
       Occupied  (A) (A) (A) (A) (A) (A) (A) (A) (A) (A) (A) (A)
                 (A) (A) (A) (A) (A) (A) (A) (A) (A) (A) (A) (A)
                 (A) (A) (A) (A) (A) (A) (A) (A) (A) (A) (A) (A)
                 (A) (A) (A) (A) (A) (A) (A) (A) (A) (A) (A) (A)
                 (A) (A) (A) (A) (A) (A) (A) (A) (A) (A) (A) (A)
                 (A) (A) (A) (A) (A) (A) (A) (A) (A) (A) (A) (A)
                 (A) (A) (A) (A) (A) (A) (A) (A) (A) (A) (A) (A)
                 (A) (A) (A) (A) (A) (A) (A) (A) (A) (A) (A) (A)
                 (A) (A) (A) (A) (A) (A) (A) (A) (A) (A) (A) (A)
                 (A) (A) (A) (A) (A) (A) (A)
       Virtual   (A) (A) (A) (A) (A) (A) (A) (A) (A) (A) (A) (A)
                 (A) (A) (A) (A) (A) (A) (A) (A) (A) (A) (A) (A)
                 (A) (A) (A) (A) (A) (A) (A) (A) (A) (A) (A) (A)
                 (A) (A) (A) (A) (A) (A) (A) (A) (A) (A) (A) (A)
                 (A) (A) (A) (A) (A) (A) (A) (A) (A) (A) (A) (A)
                 (A) (A) (A) (A) (A) (A) (A) (A) (A) (A) (A) (A)
                 (A) (A) (A) (A) (A) (A) (A) (A) (A) (A) (A) (A)
                 (A) (A) (A) (A) (A) (A) (A) (A) (A) (A) (A) (A)
                 (A) (A) (A) (A) (A) (A) (A) (A) (A) (A) (A) (A)
                 (A) (A) (A) (A) (A) (A) (A) (A) (A) (A) (A) (A)
                 (A) (A) (A) (A) (A) (A) (A) (A) (A) (A) (A) (A)
                 (A) (A) (A) (A) (A) (A) (A) (A) (A) (A) (A) (A)
                 (A) (A) (A) (A) (A) (A) (A) (A) (A) (A) (A) (A)
                 (A) (A) (A) (A) (A) (A) (A) (A) (A) (A) (A) (A)
                 (A) (A) (A) (A) (A) (A) (A) (A) (A) (A) (A) (A)
                 (A) (A) (A) (A) (A) (A) (A) (A) (A) (A) (A) (A)
                 (A) (A) (A) (A) (A) (A) (A) (A) (A) (A) (A) (A)
                 (A) (A) (A) (A) (A) (A) (A) (A) (A) (A) (A) (A)
                 (A) (A) (A) (A) (A) (A) (A) (A) (A) (A) (A) (A)
                 (A) (A) (A) (A) (A) (A) (A) (A) (A) (A) (A) (A)
                 (A) (A) (A) (A) (A) (A) (A) (A) (A) (A) (A) (A)
                 (A) (A) (A) (A) (A) (A) (A) (A) (A) (A) (A) (A)
                 (A) (A) (A) (A) (A) (A) (A) (A) (A) (A) (A) (A)
                 (A) (A) (A) (A) (A) (A) (A) (A) (A) (A) (A) (A)
                 (A) (A) (A) (A) (A) (A) (A) (A) (A) (A) (A) (A)
                 (A) (A) (A) (A) (A) (A) (A) (A) (A) (A) (A) (A)
                 (A) (A) (A) (A) (A) (A) (A) (A) (A) (A) (A) (A)
                 (A) (A) (A) (A) (A) (A) (A) (A) (A) (A) (A) (A)
                 (A) (A) (A) (A) (A) (A) (A) (A) (A) (A) (A) (A)
                 (A) (A) (A) (A) (A) (A) (A) (A) (A) (A) (A) (A)
                 (A) (A) (A) (A) (A) (A) (A) (A) (A) (A) (A) (A)
                 (A) (A) (A) (A) (A) (A) (A) (A) (A) (A) (A) (A)
                 (A) (A) (A) (A) (A) (A) (A) (A) (A) (A) (A) (A)
                 (A) (A) (A) (A) (A) (A) (A) (A) (A) (A) (A) (A)
                 (A) (A) (A) (A) (A) (A) (A) (A) (A) (A)
 The electronic state is 1-A.
 Alpha  occ. eigenvalues --  -19.19780 -19.16737 -19.15887 -19.12700 -19.12452
 Alpha  occ. eigenvalues --  -10.27092 -10.26962 -10.26903 -10.26456 -10.25905
 Alpha  occ. eigenvalues --  -10.25858 -10.24975 -10.21310 -10.20735 -10.20702
 Alpha  occ. eigenvalues --  -10.20325 -10.19917 -10.19430 -10.19347 -10.19264
 Alpha  occ. eigenvalues --  -10.19241 -10.19136 -10.18819 -10.18707 -10.18447
 Alpha  occ. eigenvalues --  -10.18430 -10.18264 -10.18060 -10.17090 -10.16863
 Alpha  occ. eigenvalues --  -10.16090  -1.09166  -1.05952  -1.03166  -1.02596
 Alpha  occ. eigenvalues --   -1.02117  -0.86620  -0.83724  -0.82450  -0.81372
 Alpha  occ. eigenvalues --   -0.80193  -0.79469  -0.76762  -0.74204  -0.73172
 Alpha  occ. eigenvalues --   -0.72097  -0.71367  -0.70152  -0.70001  -0.67778
 Alpha  occ. eigenvalues --   -0.64904  -0.64155  -0.62852  -0.61837  -0.60559
 Alpha  occ. eigenvalues --   -0.59238  -0.59033  -0.56910  -0.55066  -0.53700
 Alpha  occ. eigenvalues --   -0.52899  -0.52076  -0.50436  -0.50412  -0.49439
 Alpha  occ. eigenvalues --   -0.48355  -0.47495  -0.46935  -0.46424  -0.45622
 Alpha  occ. eigenvalues --   -0.44925  -0.44390  -0.43912  -0.43690  -0.43206
 Alpha  occ. eigenvalues --   -0.42925  -0.42052  -0.41935  -0.41556  -0.41359
 Alpha  occ. eigenvalues --   -0.41065  -0.40660  -0.40583  -0.40274  -0.40025
 Alpha  occ. eigenvalues --   -0.39254  -0.39157  -0.38524  -0.38239  -0.37794
 Alpha  occ. eigenvalues --   -0.37658  -0.37446  -0.37314  -0.36842  -0.36708
 Alpha  occ. eigenvalues --   -0.36217  -0.35698  -0.35240  -0.34652  -0.34418
 Alpha  occ. eigenvalues --   -0.33821  -0.33744  -0.32834  -0.32756  -0.32057
 Alpha  occ. eigenvalues --   -0.31762  -0.31265  -0.31038  -0.28343  -0.27128
 Alpha  occ. eigenvalues --   -0.25650  -0.24587  -0.24130  -0.23293  -0.22728
 Alpha virt. eigenvalues --   -0.04554  -0.01356   0.00622   0.02330   0.05349
 Alpha virt. eigenvalues --    0.07131   0.08327   0.08547   0.09196   0.09966
 Alpha virt. eigenvalues --    0.10356   0.10977   0.11050   0.12235   0.12363
 Alpha virt. eigenvalues --    0.12712   0.13254   0.13523   0.13906   0.14065
 Alpha virt. eigenvalues --    0.14272   0.14544   0.15114   0.15571   0.16070
 Alpha virt. eigenvalues --    0.16448   0.16982   0.17019   0.17268   0.17620
 Alpha virt. eigenvalues --    0.17750   0.17963   0.18192   0.18491   0.18767
 Alpha virt. eigenvalues --    0.18941   0.19472   0.19660   0.19727   0.20126
 Alpha virt. eigenvalues --    0.20701   0.20969   0.21299   0.21711   0.21956
 Alpha virt. eigenvalues --    0.22417   0.23090   0.23679   0.24218   0.24311
 Alpha virt. eigenvalues --    0.24499   0.25371   0.25636   0.26117   0.26610
 Alpha virt. eigenvalues --    0.27008   0.27776   0.28005   0.28549   0.29610
 Alpha virt. eigenvalues --    0.29982   0.31548   0.32460   0.32680   0.34042
 Alpha virt. eigenvalues --    0.34710   0.36105   0.37412   0.38612   0.40281
 Alpha virt. eigenvalues --    0.42336   0.45416   0.46628   0.47866   0.48330
 Alpha virt. eigenvalues --    0.49196   0.49966   0.50270   0.51142   0.51380
 Alpha virt. eigenvalues --    0.51577   0.51944   0.52644   0.52981   0.53294
 Alpha virt. eigenvalues --    0.53959   0.54395   0.54671   0.55700   0.56443
 Alpha virt. eigenvalues --    0.56897   0.57420   0.57692   0.58612   0.58913
 Alpha virt. eigenvalues --    0.59331   0.60262   0.60545   0.61132   0.61629
 Alpha virt. eigenvalues --    0.62562   0.62995   0.63443   0.63949   0.64847
 Alpha virt. eigenvalues --    0.65235   0.65749   0.66426   0.66937   0.67282
 Alpha virt. eigenvalues --    0.67766   0.68104   0.68398   0.68763   0.69524
 Alpha virt. eigenvalues --    0.70141   0.71272   0.71776   0.72476   0.73401
 Alpha virt. eigenvalues --    0.74488   0.74725   0.75200   0.75906   0.76382
 Alpha virt. eigenvalues --    0.77044   0.77443   0.78259   0.79023   0.79237
 Alpha virt. eigenvalues --    0.80176   0.80609   0.81763   0.82221   0.82525
 Alpha virt. eigenvalues --    0.82761   0.83259   0.84241   0.84647   0.84930
 Alpha virt. eigenvalues --    0.85297   0.85900   0.86328   0.86635   0.86840
 Alpha virt. eigenvalues --    0.87257   0.87669   0.88015   0.88836   0.88932
 Alpha virt. eigenvalues --    0.89087   0.89455   0.90078   0.90316   0.90383
 Alpha virt. eigenvalues --    0.90868   0.91503   0.91839   0.91920   0.92387
 Alpha virt. eigenvalues --    0.92665   0.93798   0.93928   0.94310   0.94829
 Alpha virt. eigenvalues --    0.95024   0.95535   0.96499   0.96652   0.97046
 Alpha virt. eigenvalues --    0.97385   0.98085   0.98653   0.99239   0.99722
 Alpha virt. eigenvalues --    1.00899   1.01493   1.01839   1.02055   1.03650
 Alpha virt. eigenvalues --    1.05113   1.06097   1.06668   1.07197   1.07905
 Alpha virt. eigenvalues --    1.08982   1.09959   1.11464   1.11843   1.13085
 Alpha virt. eigenvalues --    1.13496   1.14434   1.15219   1.15967   1.16779
 Alpha virt. eigenvalues --    1.17556   1.18428   1.19277   1.19974   1.21071
 Alpha virt. eigenvalues --    1.22241   1.22580   1.24453   1.25385   1.26272
 Alpha virt. eigenvalues --    1.27899   1.29071   1.29616   1.30277   1.32755
 Alpha virt. eigenvalues --    1.34266   1.36350   1.37755   1.39477   1.40921
 Alpha virt. eigenvalues --    1.41145   1.42299   1.43594   1.45694   1.46641
 Alpha virt. eigenvalues --    1.47429   1.48546   1.49961   1.51293   1.51820
 Alpha virt. eigenvalues --    1.53372   1.53839   1.54750   1.55725   1.57212
 Alpha virt. eigenvalues --    1.59671   1.60535   1.61220   1.63002   1.63447
 Alpha virt. eigenvalues --    1.63967   1.65435   1.66887   1.67513   1.68877
 Alpha virt. eigenvalues --    1.69497   1.72371   1.72534   1.72895   1.73345
 Alpha virt. eigenvalues --    1.73727   1.74374   1.75518   1.76599   1.77665
 Alpha virt. eigenvalues --    1.78719   1.79497   1.79920   1.80994   1.81456
 Alpha virt. eigenvalues --    1.81875   1.82578   1.84022   1.84926   1.85349
 Alpha virt. eigenvalues --    1.85892   1.86243   1.86916   1.87137   1.88316
 Alpha virt. eigenvalues --    1.89406   1.89840   1.89947   1.90334   1.91557
 Alpha virt. eigenvalues --    1.92114   1.92343   1.92690   1.93777   1.94733
 Alpha virt. eigenvalues --    1.95025   1.96035   1.96887   1.97331   1.97930
 Alpha virt. eigenvalues --    1.98435   1.98697   1.99538   2.00698   2.01058
 Alpha virt. eigenvalues --    2.02113   2.03053   2.03284   2.04413   2.05360
 Alpha virt. eigenvalues --    2.05763   2.06657   2.06948   2.08333   2.09352
 Alpha virt. eigenvalues --    2.09973   2.11236   2.11590   2.12100   2.12850
 Alpha virt. eigenvalues --    2.14129   2.15012   2.15375   2.18046   2.18470
 Alpha virt. eigenvalues --    2.18870   2.19267   2.20837   2.21452   2.22155
 Alpha virt. eigenvalues --    2.23182   2.24195   2.24838   2.25544   2.26533
 Alpha virt. eigenvalues --    2.27229   2.28416   2.29155   2.30521   2.31784
 Alpha virt. eigenvalues --    2.32332   2.33197   2.33382   2.34777   2.35103
 Alpha virt. eigenvalues --    2.35976   2.36771   2.37108   2.38157   2.38807
 Alpha virt. eigenvalues --    2.39544   2.40071   2.40999   2.42197   2.42919
 Alpha virt. eigenvalues --    2.43144   2.45129   2.46177   2.47055   2.48110
 Alpha virt. eigenvalues --    2.48944   2.50086   2.51466   2.52981   2.54146
 Alpha virt. eigenvalues --    2.54834   2.55981   2.57878   2.59044   2.59972
 Alpha virt. eigenvalues --    2.60807   2.61627   2.63264   2.64319   2.64933
 Alpha virt. eigenvalues --    2.66471   2.67274   2.68148   2.70216   2.71697
 Alpha virt. eigenvalues --    2.71967   2.72747   2.73936   2.76013   2.77113
 Alpha virt. eigenvalues --    2.79252   2.79888   2.81747   2.83090   2.83631
 Alpha virt. eigenvalues --    2.87825   2.90113   2.92443   2.93842   2.95530
 Alpha virt. eigenvalues --    2.97823   2.99202   3.00915   3.02170   3.02534
 Alpha virt. eigenvalues --    3.04470   3.05847   3.12446   3.17480   3.20773
 Alpha virt. eigenvalues --    3.24336   3.28112   4.06191   4.07546   4.12015
 Alpha virt. eigenvalues --    4.12231   4.12942   4.13591   4.17922   4.19536
 Alpha virt. eigenvalues --    4.22025   4.23051   4.25022   4.27607   4.30574
 Alpha virt. eigenvalues --    4.31643   4.34871   4.37190   4.38753   4.45757
 Alpha virt. eigenvalues --    4.48000   4.50122   4.52271   4.55316   4.59042
 Alpha virt. eigenvalues --    4.62226   4.66196   4.66615   4.72084   4.79340
 Alpha virt. eigenvalues --    4.89647   5.01994   5.19213
          Condensed to atoms (all electrons):
 Mulliken atomic charges:
              1
     1  C   -0.183948
     2  C    0.194400
     3  C   -0.190503
     4  C    0.327841
     5  C   -0.049687
     6  C   -0.339009
     7  C    0.189992
     8  C    0.396346
     9  C   -0.095602
    10  C    0.428692
    11  C    0.426193
    12  O   -0.447957
    13  C   -0.161315
    14  C   -0.243923
    15  C   -0.454323
    16  O   -0.496980
    17  C   -0.163055
    18  C    0.304628
    19  O   -0.538350
    20  C   -0.321504
    21  O   -0.672439
    22  C   -0.310758
    23  C    0.077095
    24  O   -0.597221
    25  C    0.240025
    26  C   -0.546768
    27  C   -0.403928
    28  C   -0.468197
    29  C   -0.460014
    30  H    0.143969
    31  H    0.163939
    32  C   -0.519349
    33  H    0.123825
    34  H    0.188297
    35  H    0.146162
    36  H    0.143475
    37  H    0.154443
    38  H    0.122953
    39  H    0.157468
    40  H    0.146440
    41  H    0.164458
    42  H    0.167425
    43  H    0.151662
    44  H    0.433396
    45  H    0.169987
    46  H    0.162807
    47  H    0.136394
    48  H    0.166078
    49  H    0.174345
    50  H    0.161500
    51  H    0.142122
    52  H    0.141810
    53  H    0.155705
    54  H    0.144153
    55  H    0.191938
    56  H    0.163792
    57  H    0.151361
    58  H    0.163734
    59  H    0.158763
    60  H    0.157051
    61  H    0.149694
    62  C   -0.451631
    63  H    0.159838
    64  H    0.138179
    65  H    0.134085
 Sum of Mulliken atomic charges =   0.00000
 Mulliken charges with hydrogens summed into heavy atoms:
              1
     1  C   -0.060123
     2  C    0.194400
     3  C   -0.026563
     4  C    0.327841
     5  C   -0.049687
     6  C   -0.004550
     7  C    0.189992
     8  C    0.396346
     9  C   -0.095602
    10  C    0.428692
    11  C    0.426193
    12  O   -0.447957
    13  C   -0.017840
    14  C    0.033474
    15  C    0.014043
    16  O   -0.496980
    17  C   -0.019086
    18  C    0.304628
    19  O   -0.538350
    20  C   -0.002417
    21  O   -0.239042
    22  C    0.022035
    23  C    0.213489
    24  O   -0.597221
    25  C    0.240025
    26  C   -0.044845
    27  C   -0.119996
    28  C    0.023599
    29  C    0.018873
    32  C   -0.053842
    62  C   -0.019529
 Sum of Mulliken charges with hydrogens summed into heavy atoms =   0.00000
 Electronic spatial extent (au):  <R**2>=          11494.7736
 Charge=              0.0000 electrons
 Dipole moment (field-independent basis, Debye):
    X=             -3.1904    Y=              4.2429    Z=             -3.0382  Tot=              6.1165
 Quadrupole moment (field-independent basis, Debye-Ang):
   XX=           -181.8453   YY=           -180.9318   ZZ=           -184.9076
   XY=              7.8678   XZ=             -7.8573   YZ=              5.5446
 Traceless Quadrupole moment (field-independent basis, Debye-Ang):
   XX=              0.7162   YY=              1.6298   ZZ=             -2.3460
   XY=              7.8678   XZ=             -7.8573   YZ=              5.5446
 Octapole moment (field-independent basis, Debye-Ang**2):
  XXX=            -27.4225  YYY=             49.3446  ZZZ=            -11.0500  XYY=              3.3851
  XXY=            -25.4013  XXZ=            -33.6768  XZZ=            -30.3364  YZZ=             16.7144
  YYZ=            -26.5825  XYZ=              4.5010
 Hexadecapole moment (field-independent basis, Debye-Ang**3):
 XXXX=          -8320.8953 YYYY=          -3806.7791 ZZZZ=          -3163.1823 XXXY=            107.3109
 XXXZ=              4.4969 YYYX=            -21.3113 YYYZ=            -12.2401 ZZZX=              8.6217
 ZZZY=             -6.2890 XXYY=          -2001.9797 XXZZ=          -1913.5337 YYZZ=          -1162.7403
 XXYZ=             36.9751 YYXZ=            -20.4382 ZZXY=             51.9867
 N-N= 3.509992165095D+03 E-N=-1.024612638262D+04  KE= 1.374468074581D+03
 1\1\GINC-B0603\FOpt\RB3LYP\6-31G(d)\C26H34O5\CAOFEI\24-Mar-2021\0\\# o
 pt rb3lyp/6-31g(d) geom=connectivity\\Title Card Required\\0,1\C,0.070
 4466043,-0.0679904386,0.0737344386\C,1.4071796372,-0.0508361062,0.0607
 204395\C,2.1847693485,1.2475759558,0.0485346927\C,1.3585146393,2.55202
 13848,-0.1954493368\C,-0.1677282126,2.4336017199,-0.4936018403\C,-0.80
 00813435,1.153849511,0.1202570907\C,2.1408154049,3.2978600604,-1.31552
 62511\C,1.6906081807,2.924754587,-2.7090755708\C,0.4234785615,2.604600
 9111,-3.0513772739\C,-0.5881952331,2.4888322367,-1.9888840917\C,0.0233
 436706,2.2456821081,-4.4651339432\O,-0.4705314824,1.1591689433,-4.7015
 446076\C,0.1983580682,3.3192893486,-5.5392923047\C,0.3203137901,2.7184
 272561,-6.947599166\C,-1.0087807388,4.2792487442,-5.4289224915\O,-1.78
 17941003,2.4258127049,-2.2517095535\C,3.5777633238,2.7352541406,-1.356
 852702\C,4.0187456,3.0174493637,-2.8135760549\O,2.7335196065,2.9074654
 976,-3.5579495038\C,3.3438885433,1.2572658838,-0.9921028822\O,2.037496
 6145,4.7031974081,-1.181993095\C,-0.7352633577,3.6813702326,0.23312777
 38\C,0.1508349376,3.7596893812,1.478589731\O,1.4644102992,3.3967201964
 ,0.9860745283\C,0.1827879267,5.0908292248,2.198069945\C,0.8834500079,6
 .2562227167,1.5440075684\C,-0.4323535816,5.2088240327,3.3790554445\C,4
 .5530827313,4.4382923499,-3.009578512\C,4.9608634216,1.9928572262,-3.4
 396097589\H,4.2290889612,3.2352651502,-0.6331864159\H,2.63343558,1.387
 6514071,1.0423990616\C,2.217031508,-1.3232792858,0.1159646819\H,-0.443
 71601,-1.0277791895,0.1064153627\H,-1.7482219006,0.9787036144,-0.39728
 01704\H,-1.0706841163,1.3479129464,1.1693993744\H,1.1067348853,3.88850
 57316,-5.3026964368\H,-0.5513725888,2.0797719303,-7.1313915145\H,0.273
 4479381,3.5392783154,-7.6759889599\H,-1.1088699519,4.6923199029,-4.419
 7336711\H,-0.8907507427,5.1133093117,-6.1296374694\H,-1.9396486856,3.7
 54259335,-5.6693114807\H,3.0302635586,0.6984205465,-1.8807222206\H,4.2
 447948533,0.7699210208,-0.608522447\H,2.0422066356,4.8366467992,-0.214
 0387453\H,-1.7958507689,3.569078494,0.4709285956\H,-0.6131125257,4.576
 9909876,-0.3835870246\H,-0.1632282586,2.9942178011,2.2005779389\H,1.97
 10842448,6.1040253839,1.5341624424\H,0.5642905504,6.4058295255,0.50571
 38603\H,0.6912647004,7.1834872708,2.0913549659\H,-0.9112209234,4.36143
 95512,3.8636785364\H,-0.4873185427,6.1598542726,3.9021928341\H,4.67357
 04055,4.6460701202,-4.0778890954\H,5.5336083943,4.5385015735,-2.529921
 1151\H,3.8741101574,5.1746919906,-2.5757137616\H,5.1523830622,2.249983
 5184,-4.4862180065\H,5.9187753285,1.9944972368,-2.9078407631\H,4.54813
 85108,0.9819487359,-3.4091376159\H,1.5670209096,-2.2000429223,0.194438
 3709\H,2.8475457944,-1.4536178365,-0.7730486808\H,2.8932392028,-1.3247
 171048,0.9829892972\C,1.6044251621,1.9113566971,-7.1674254755\H,1.6460
 983197,1.0488626968,-6.4945360918\H,1.6601747186,1.5357037023,-8.19558
 37624\H,2.4961187657,2.5244941876,-6.9861971111\\Version=EM64L-G09RevB
 .01\State=1-A\HF=-1387.3183686\RMSD=4.457e-09\RMSF=3.691e-06\Dipole=1.
 8718926,0.6041639,1.386294\Quadrupole=-0.7552439,0.8668939,-0.11165,-4
 .5984064,-7.290774,-3.5728726\PG=C01 [X(C26H34O5)]\\@


 EVERYTHING'S GOT A MORAL, IF ONLY YOU CAN FIND IT.

                                    -- LEWIS CARROL, ALICE IN WONDERLAND
 Job cpu time:  0 days  5 hours 14 minutes 23.4 seconds.
 File lengths (MBytes):  RWF=    186 Int=      0 D2E=      0 Chk=     20 Scr=      1
 Normal termination of Gaussian 09 at Wed Mar 24 14:21:28 2021.
