 Entering Gaussian System, Link 0=g09
 Initial command:
 /public/software/g09/g09/l1.exe /tmp/Gau-31631.inp -scrdir=/tmp/
 Entering Link 1 = /public/software/g09/g09/l1.exe PID=     31632.
  
 Copyright (c) 1988,1990,1992,1993,1995,1998,2003,2009,2010,
            Gaussian, Inc.  All Rights Reserved.
  
 This is part of the Gaussian(R) 09 program.  It is based on
 the Gaussian(R) 03 system (copyright 2003, Gaussian, Inc.),
 the Gaussian(R) 98 system (copyright 1998, Gaussian, Inc.),
 the Gaussian(R) 94 system (copyright 1995, Gaussian, Inc.),
 the Gaussian 92(TM) system (copyright 1992, Gaussian, Inc.),
 the Gaussian 90(TM) system (copyright 1990, Gaussian, Inc.),
 the Gaussian 88(TM) system (copyright 1988, Gaussian, Inc.),
 the Gaussian 86(TM) system (copyright 1986, Carnegie Mellon
 University), and the Gaussian 82(TM) system (copyright 1983,
 Carnegie Mellon University). Gaussian is a federally registered
 trademark of Gaussian, Inc.
  
 This software contains proprietary and confidential information,
 including trade secrets, belonging to Gaussian, Inc.
  
 This software is provided under written license and may be
 used, copied, transmitted, or stored only in accord with that
 written license.
  
 The following legend is applicable only to US Government
 contracts under FAR:
  
                    RESTRICTED RIGHTS LEGEND
  
 Use, reproduction and disclosure by the US Government is
 subject to restrictions as set forth in subparagraphs (a)
 and (c) of the Commercial Computer Software - Restricted
 Rights clause in FAR 52.227-19.
  
 Gaussian, Inc.
 340 Quinnipiac St., Bldg. 40, Wallingford CT 06492
  
  
 ---------------------------------------------------------------
 Warning -- This program may not be used in any manner that
 competes with the business of Gaussian, Inc. or will provide
 assistance to any competitor of Gaussian, Inc.  The licensee
 of this program is prohibited from giving any competitor of
 Gaussian, Inc. access to this program.  By using this program,
 the user acknowledges that Gaussian, Inc. is engaged in the
 business of creating and licensing software in the field of
 computational chemistry and represents and warrants to the
 licensee that it is not a competitor of Gaussian, Inc. and that
 it will not use this program in any manner prohibited above.
 ---------------------------------------------------------------
  

 Cite this work as:
 Gaussian 09, Revision B.01,
 M. J. Frisch, G. W. Trucks, H. B. Schlegel, G. E. Scuseria, 
 M. A. Robb, J. R. Cheeseman, G. Scalmani, V. Barone, B. Mennucci, 
 G. A. Petersson, H. Nakatsuji, M. Caricato, X. Li, H. P. Hratchian, 
 A. F. Izmaylov, J. Bloino, G. Zheng, J. L. Sonnenberg, M. Hada, 
 M. Ehara, K. Toyota, R. Fukuda, J. Hasegawa, M. Ishida, T. Nakajima, 
 Y. Honda, O. Kitao, H. Nakai, T. Vreven, J. A. Montgomery, Jr., 
 J. E. Peralta, F. Ogliaro, M. Bearpark, J. J. Heyd, E. Brothers, 
 K. N. Kudin, V. N. Staroverov, T. Keith, R. Kobayashi, J. Normand, 
 K. Raghavachari, A. Rendell, J. C. Burant, S. S. Iyengar, J. Tomasi, 
 M. Cossi, N. Rega, J. M. Millam, M. Klene, J. E. Knox, J. B. Cross, 
 V. Bakken, C. Adamo, J. Jaramillo, R. Gomperts, R. E. Stratmann, 
 O. Yazyev, A. J. Austin, R. Cammi, C. Pomelli, J. W. Ochterski, 
 R. L. Martin, K. Morokuma, V. G. Zakrzewski, G. A. Voth, 
 P. Salvador, J. J. Dannenberg, S. Dapprich, A. D. Daniels, 
 O. Farkas, J. B. Foresman, J. V. Ortiz, J. Cioslowski, 
 and D. J. Fox, Gaussian, Inc., Wallingford CT, 2010.
 
 ******************************************
 Gaussian 09:  EM64L-G09RevB.01 12-Aug-2010
                13-Apr-2021 
 ******************************************
 %mem=600MW
 %nprocshared=10
 Will use up to   10 processors via shared memory.
 ----------------------------------------
 # opt b3lyp/6-311+g(d) geom=connectivity
 ----------------------------------------
 1/14=-1,18=20,19=15,26=3,38=1,57=2/1,3;
 2/9=110,12=2,17=6,18=5,40=1/2;
 3/5=4,6=6,7=11,11=2,16=1,25=1,30=1,71=1,74=-5/1,2,3;
 4//1;
 5/5=2,38=5/2;
 6/7=2,8=2,9=2,10=2,28=1/1;
 7//1,2,3,16;
 1/14=-1,18=20,19=15/3(2);
 2/9=110/2;
 99//99;
 2/9=110/2;
 3/5=4,6=6,7=11,11=2,16=1,25=1,30=1,71=1,74=-5/1,2,3;
 4/5=5,16=3/1;
 5/5=2,38=5/2;
 7//1,2,3,16;
 1/14=-1,18=20,19=15/3(-5);
 2/9=110/2;
 6/7=2,8=2,9=2,10=2,19=2,28=1/1;
 99/9=1/99;
 -------------------
 Title Card Required
 -------------------
 Symbolic Z-matrix:
 Charge =  0 Multiplicity = 1
 C                     0.7284   -0.8871    3.14019 
 C                     0.99604   0.41786   3.01414 
 C                     1.53608   0.98952   1.7199 
 C                     1.47214   0.04672   0.47709 
 C                     0.79291  -1.3385    0.62164 
 C                     0.9444   -1.90521   2.05551 
 C                     0.82862   0.91315  -0.63712 
 C                    -0.68785   0.83651  -0.67052 
 C                    -1.42188  -0.26867  -0.33903 
 C                    -0.70744  -1.42341   0.22325 
 C                    -2.91894  -0.25563  -0.51405 
 O                    -3.41448   0.46629  -1.36837 
 C                    -3.82106  -1.08667   0.40577 
 C                    -4.34797  -2.35256  -0.32744 
 C                    -4.9604   -0.19996   0.93738 
 O                    -1.26131  -2.50599   0.39855 
 C                     0.99819   2.39547  -0.2434 
 C                    -0.16003   3.08125  -1.00241 
 O                    -1.19917   2.01362  -1.01853 
 C                     0.86175   2.32569   1.29036 
 O                     1.29711   0.5579   -1.92381 
 C                     1.60829  -2.19969  -0.3806 
 C                     3.02124  -1.64682  -0.22759 
 O                     2.82916  -0.22687   0.0424 
 C                     3.99533  -1.7858   -1.37906 
 C                     5.33518  -1.12547  -1.15783 
 C                     3.71203  -2.47292  -2.49005 
 C                     0.18587   3.4142   -2.45532 
 C                    -0.80491   4.2803   -0.31211 
 H                     1.97386   2.78552  -0.54878 
 H                     2.60779   1.19063   1.85968 
 C                     0.84609   1.37586   4.17029 
 H                     0.37575  -1.26314   4.09985 
 H                     1.94807  -2.34082   2.17331 
 H                     0.24256  -2.7384    2.15376 
 H                    -3.22705  -1.44608   1.25021 
 H                    -3.48245  -2.94326  -0.64365 
 H                    -4.87395  -2.95946   0.42298 
 H                    -4.57104   0.60778   1.56859 
 H                    -5.65236  -0.79641   1.54373 
 H                    -5.51838   0.25919   0.11776 
 H                     1.30229   3.1911    1.79352 
 H                    -0.19745   2.29775   1.56924 
 H                     2.23416   0.31754  -1.77869 
 H                     1.24223  -2.03516  -1.39754 
 H                     1.53423  -3.26555  -0.15037 
 H                     3.49858  -2.07894   0.66623 
 H                     5.21772  -0.05238  -0.96831 
 H                     5.83694  -1.54596  -0.27541 
 H                     5.99441  -1.25858  -2.02053 
 H                     4.44534  -2.57672  -3.28588 
 H                     2.75817  -2.96479  -2.6512 
 H                    -0.72023   3.7123   -2.99212 
 H                     0.89477   4.24971  -2.4865 
 H                     0.63191   2.55483  -2.9587 
 H                    -0.08202   5.10048  -0.23978 
 H                    -1.66143   4.62972  -0.89666 
 H                    -1.15725   4.03788   0.6932 
 H                     0.51347   0.85484   5.07329 
 H                     1.80022   1.8721    4.39893 
 H                     0.1225    2.17341   3.95774 
 C                    -5.27846  -2.1051   -1.51984 
 H                    -5.548    -3.05899  -1.98888 
 H                    -6.21015  -1.61368  -1.21796 
 H                    -4.80529  -1.47424  -2.27806 
 

 GradGradGradGradGradGradGradGradGradGradGradGradGradGradGradGradGradGrad
 Berny optimization.
 Initialization pass.
                           ----------------------------
                           !    Initial Parameters    !
                           ! (Angstroms and Degrees)  !
 --------------------------                            --------------------------
 ! Name  Definition              Value          Derivative Info.                !
 --------------------------------------------------------------------------------
 ! R1    R(1,2)                  1.3381         estimate D2E/DX2                !
 ! R2    R(1,6)                  1.5032         estimate D2E/DX2                !
 ! R3    R(1,33)                 1.0894         estimate D2E/DX2                !
 ! R4    R(2,3)                  1.5144         estimate D2E/DX2                !
 ! R5    R(2,32)                 1.509          estimate D2E/DX2                !
 ! R6    R(3,4)                  1.5613         estimate D2E/DX2                !
 ! R7    R(3,20)                 1.5571         estimate D2E/DX2                !
 ! R8    R(3,31)                 1.0993         estimate D2E/DX2                !
 ! R9    R(4,5)                  1.5495         estimate D2E/DX2                !
 ! R10   R(4,7)                  1.5512         estimate D2E/DX2                !
 ! R11   R(4,24)                 1.451          estimate D2E/DX2                !
 ! R12   R(5,6)                  1.5492         estimate D2E/DX2                !
 ! R13   R(5,10)                 1.5547         estimate D2E/DX2                !
 ! R14   R(5,22)                 1.5527         estimate D2E/DX2                !
 ! R15   R(6,34)                 1.1005         estimate D2E/DX2                !
 ! R16   R(6,35)                 1.0938         estimate D2E/DX2                !
 ! R17   R(7,8)                  1.5188         estimate D2E/DX2                !
 ! R18   R(7,17)                 1.5431         estimate D2E/DX2                !
 ! R19   R(7,21)                 1.4147         estimate D2E/DX2                !
 ! R20   R(8,9)                  1.3675         estimate D2E/DX2                !
 ! R21   R(8,19)                 1.3297         estimate D2E/DX2                !
 ! R22   R(9,10)                 1.4697         estimate D2E/DX2                !
 ! R23   R(9,11)                 1.5073         estimate D2E/DX2                !
 ! R24   R(10,16)                1.2286         estimate D2E/DX2                !
 ! R25   R(11,12)                1.2233         estimate D2E/DX2                !
 ! R26   R(11,13)                1.5331         estimate D2E/DX2                !
 ! R27   R(13,14)                1.5549         estimate D2E/DX2                !
 ! R28   R(13,15)                1.5385         estimate D2E/DX2                !
 ! R29   R(13,36)                1.0932         estimate D2E/DX2                !
 ! R30   R(14,37)                1.0946         estimate D2E/DX2                !
 ! R31   R(14,38)                1.0991         estimate D2E/DX2                !
 ! R32   R(14,62)                1.5326         estimate D2E/DX2                !
 ! R33   R(15,39)                1.0966         estimate D2E/DX2                !
 ! R34   R(15,40)                1.0965         estimate D2E/DX2                !
 ! R35   R(15,41)                1.0927         estimate D2E/DX2                !
 ! R36   R(17,18)                1.5453         estimate D2E/DX2                !
 ! R37   R(17,20)                1.5414         estimate D2E/DX2                !
 ! R38   R(17,30)                1.0942         estimate D2E/DX2                !
 ! R39   R(18,19)                1.4899         estimate D2E/DX2                !
 ! R40   R(18,28)                1.5302         estimate D2E/DX2                !
 ! R41   R(18,29)                1.5265         estimate D2E/DX2                !
 ! R42   R(20,42)                1.0937         estimate D2E/DX2                !
 ! R43   R(20,43)                1.0956         estimate D2E/DX2                !
 ! R44   R(21,44)                0.9782         estimate D2E/DX2                !
 ! R45   R(22,23)                1.525          estimate D2E/DX2                !
 ! R46   R(22,45)                1.0933         estimate D2E/DX2                !
 ! R47   R(22,46)                1.093          estimate D2E/DX2                !
 ! R48   R(23,24)                1.4581         estimate D2E/DX2                !
 ! R49   R(23,25)                1.5146         estimate D2E/DX2                !
 ! R50   R(23,47)                1.1016         estimate D2E/DX2                !
 ! R51   R(25,26)                1.51           estimate D2E/DX2                !
 ! R52   R(25,27)                1.3367         estimate D2E/DX2                !
 ! R53   R(26,48)                1.096          estimate D2E/DX2                !
 ! R54   R(26,49)                1.0987         estimate D2E/DX2                !
 ! R55   R(26,50)                1.0939         estimate D2E/DX2                !
 ! R56   R(27,51)                1.0871         estimate D2E/DX2                !
 ! R57   R(27,52)                1.0852         estimate D2E/DX2                !
 ! R58   R(28,53)                1.0946         estimate D2E/DX2                !
 ! R59   R(28,54)                1.0962         estimate D2E/DX2                !
 ! R60   R(28,55)                1.0913         estimate D2E/DX2                !
 ! R61   R(29,56)                1.0957         estimate D2E/DX2                !
 ! R62   R(29,57)                1.0943         estimate D2E/DX2                !
 ! R63   R(29,58)                1.0925         estimate D2E/DX2                !
 ! R64   R(32,59)                1.0943         estimate D2E/DX2                !
 ! R65   R(32,60)                1.0995         estimate D2E/DX2                !
 ! R66   R(32,61)                1.0977         estimate D2E/DX2                !
 ! R67   R(62,63)                1.0966         estimate D2E/DX2                !
 ! R68   R(62,64)                1.0957         estimate D2E/DX2                !
 ! R69   R(62,65)                1.094          estimate D2E/DX2                !
 ! A1    A(2,1,6)              124.3194         estimate D2E/DX2                !
 ! A2    A(2,1,33)             118.9718         estimate D2E/DX2                !
 ! A3    A(6,1,33)             116.6396         estimate D2E/DX2                !
 ! A4    A(1,2,3)              121.33           estimate D2E/DX2                !
 ! A5    A(1,2,32)             121.8111         estimate D2E/DX2                !
 ! A6    A(3,2,32)             116.7805         estimate D2E/DX2                !
 ! A7    A(2,3,4)              115.9597         estimate D2E/DX2                !
 ! A8    A(2,3,20)             113.906          estimate D2E/DX2                !
 ! A9    A(2,3,31)             107.9401         estimate D2E/DX2                !
 ! A10   A(4,3,20)             106.3118         estimate D2E/DX2                !
 ! A11   A(4,3,31)             104.5726         estimate D2E/DX2                !
 ! A12   A(20,3,31)            107.4745         estimate D2E/DX2                !
 ! A13   A(3,4,5)              118.9158         estimate D2E/DX2                !
 ! A14   A(3,4,7)              104.5643         estimate D2E/DX2                !
 ! A15   A(3,4,24)             108.303          estimate D2E/DX2                !
 ! A16   A(5,4,7)              112.6113         estimate D2E/DX2                !
 ! A17   A(5,4,24)             105.6255         estimate D2E/DX2                !
 ! A18   A(7,4,24)             106.148          estimate D2E/DX2                !
 ! A19   A(4,5,6)              111.7458         estimate D2E/DX2                !
 ! A20   A(4,5,10)             116.6125         estimate D2E/DX2                !
 ! A21   A(4,5,22)             101.854          estimate D2E/DX2                !
 ! A22   A(6,5,10)             108.1531         estimate D2E/DX2                !
 ! A23   A(6,5,22)             110.0702         estimate D2E/DX2                !
 ! A24   A(10,5,22)            108.1246         estimate D2E/DX2                !
 ! A25   A(1,6,5)              113.956          estimate D2E/DX2                !
 ! A26   A(1,6,34)             108.7783         estimate D2E/DX2                !
 ! A27   A(1,6,35)             111.032          estimate D2E/DX2                !
 ! A28   A(5,6,34)             109.4548         estimate D2E/DX2                !
 ! A29   A(5,6,35)             107.3998         estimate D2E/DX2                !
 ! A30   A(34,6,35)            105.9064         estimate D2E/DX2                !
 ! A31   A(4,7,8)              113.6922         estimate D2E/DX2                !
 ! A32   A(4,7,17)             107.9207         estimate D2E/DX2                !
 ! A33   A(4,7,21)             112.0648         estimate D2E/DX2                !
 ! A34   A(8,7,17)              99.4284         estimate D2E/DX2                !
 ! A35   A(8,7,21)             107.3372         estimate D2E/DX2                !
 ! A36   A(17,7,21)            115.9076         estimate D2E/DX2                !
 ! A37   A(7,8,9)              124.8481         estimate D2E/DX2                !
 ! A38   A(7,8,19)             110.1833         estimate D2E/DX2                !
 ! A39   A(9,8,19)             124.9218         estimate D2E/DX2                !
 ! A40   A(8,9,10)             117.8257         estimate D2E/DX2                !
 ! A41   A(8,9,11)             119.8659         estimate D2E/DX2                !
 ! A42   A(10,9,11)            122.2781         estimate D2E/DX2                !
 ! A43   A(5,10,9)             121.6183         estimate D2E/DX2                !
 ! A44   A(5,10,16)            116.5274         estimate D2E/DX2                !
 ! A45   A(9,10,16)            121.8538         estimate D2E/DX2                !
 ! A46   A(9,11,12)            119.2426         estimate D2E/DX2                !
 ! A47   A(9,11,13)            120.6679         estimate D2E/DX2                !
 ! A48   A(12,11,13)           120.0329         estimate D2E/DX2                !
 ! A49   A(11,13,14)           110.9645         estimate D2E/DX2                !
 ! A50   A(11,13,15)           109.3085         estimate D2E/DX2                !
 ! A51   A(11,13,36)           108.7789         estimate D2E/DX2                !
 ! A52   A(14,13,15)           112.4089         estimate D2E/DX2                !
 ! A53   A(14,13,36)           106.3026         estimate D2E/DX2                !
 ! A54   A(15,13,36)           108.9635         estimate D2E/DX2                !
 ! A55   A(13,14,37)           107.9166         estimate D2E/DX2                !
 ! A56   A(13,14,38)           106.8433         estimate D2E/DX2                !
 ! A57   A(13,14,62)           116.1779         estimate D2E/DX2                !
 ! A58   A(37,14,38)           106.1205         estimate D2E/DX2                !
 ! A59   A(37,14,62)           110.0267         estimate D2E/DX2                !
 ! A60   A(38,14,62)           109.2565         estimate D2E/DX2                !
 ! A61   A(13,15,39)           111.1303         estimate D2E/DX2                !
 ! A62   A(13,15,40)           110.1765         estimate D2E/DX2                !
 ! A63   A(13,15,41)           111.1713         estimate D2E/DX2                !
 ! A64   A(39,15,40)           107.8457         estimate D2E/DX2                !
 ! A65   A(39,15,41)           107.6728         estimate D2E/DX2                !
 ! A66   A(40,15,41)           108.7315         estimate D2E/DX2                !
 ! A67   A(7,17,18)            102.6285         estimate D2E/DX2                !
 ! A68   A(7,17,20)            101.5765         estimate D2E/DX2                !
 ! A69   A(7,17,30)            111.6664         estimate D2E/DX2                !
 ! A70   A(18,17,20)           116.2629         estimate D2E/DX2                !
 ! A71   A(18,17,30)           111.9035         estimate D2E/DX2                !
 ! A72   A(20,17,30)           111.8863         estimate D2E/DX2                !
 ! A73   A(17,18,19)           102.1258         estimate D2E/DX2                !
 ! A74   A(17,18,28)           113.1732         estimate D2E/DX2                !
 ! A75   A(17,18,29)           116.3039         estimate D2E/DX2                !
 ! A76   A(19,18,28)           107.6555         estimate D2E/DX2                !
 ! A77   A(19,18,29)           105.8497         estimate D2E/DX2                !
 ! A78   A(28,18,29)           110.7301         estimate D2E/DX2                !
 ! A79   A(8,19,18)            111.3035         estimate D2E/DX2                !
 ! A80   A(3,20,17)            105.9621         estimate D2E/DX2                !
 ! A81   A(3,20,42)            112.1882         estimate D2E/DX2                !
 ! A82   A(3,20,43)            109.0601         estimate D2E/DX2                !
 ! A83   A(17,20,42)           112.7241         estimate D2E/DX2                !
 ! A84   A(17,20,43)           109.8766         estimate D2E/DX2                !
 ! A85   A(42,20,43)           107.0067         estimate D2E/DX2                !
 ! A86   A(7,21,44)            104.1231         estimate D2E/DX2                !
 ! A87   A(5,22,23)            102.7507         estimate D2E/DX2                !
 ! A88   A(5,22,45)            109.9444         estimate D2E/DX2                !
 ! A89   A(5,22,46)            111.675          estimate D2E/DX2                !
 ! A90   A(23,22,45)           110.4261         estimate D2E/DX2                !
 ! A91   A(23,22,46)           113.2789         estimate D2E/DX2                !
 ! A92   A(45,22,46)           108.6638         estimate D2E/DX2                !
 ! A93   A(22,23,24)           104.4531         estimate D2E/DX2                !
 ! A94   A(22,23,25)           119.1005         estimate D2E/DX2                !
 ! A95   A(22,23,47)           109.9187         estimate D2E/DX2                !
 ! A96   A(24,23,25)           108.3517         estimate D2E/DX2                !
 ! A97   A(24,23,47)           106.7889         estimate D2E/DX2                !
 ! A98   A(25,23,47)           107.5886         estimate D2E/DX2                !
 ! A99   A(4,24,23)            111.2414         estimate D2E/DX2                !
 ! A100  A(23,25,26)           114.7804         estimate D2E/DX2                !
 ! A101  A(23,25,27)           122.8706         estimate D2E/DX2                !
 ! A102  A(26,25,27)           122.3185         estimate D2E/DX2                !
 ! A103  A(25,26,48)           111.0011         estimate D2E/DX2                !
 ! A104  A(25,26,49)           110.8249         estimate D2E/DX2                !
 ! A105  A(25,26,50)           111.4679         estimate D2E/DX2                !
 ! A106  A(48,26,49)           106.5446         estimate D2E/DX2                !
 ! A107  A(48,26,50)           108.6696         estimate D2E/DX2                !
 ! A108  A(49,26,50)           108.1564         estimate D2E/DX2                !
 ! A109  A(25,27,51)           120.968          estimate D2E/DX2                !
 ! A110  A(25,27,52)           122.8673         estimate D2E/DX2                !
 ! A111  A(51,27,52)           116.1611         estimate D2E/DX2                !
 ! A112  A(18,28,53)           109.7427         estimate D2E/DX2                !
 ! A113  A(18,28,54)           109.8186         estimate D2E/DX2                !
 ! A114  A(18,28,55)           111.0414         estimate D2E/DX2                !
 ! A115  A(53,28,54)           108.2896         estimate D2E/DX2                !
 ! A116  A(53,28,55)           109.0628         estimate D2E/DX2                !
 ! A117  A(54,28,55)           108.8315         estimate D2E/DX2                !
 ! A118  A(18,29,56)           109.8234         estimate D2E/DX2                !
 ! A119  A(18,29,57)           109.8729         estimate D2E/DX2                !
 ! A120  A(18,29,58)           112.2143         estimate D2E/DX2                !
 ! A121  A(56,29,57)           108.2196         estimate D2E/DX2                !
 ! A122  A(56,29,58)           108.5506         estimate D2E/DX2                !
 ! A123  A(57,29,58)           108.0578         estimate D2E/DX2                !
 ! A124  A(2,32,59)            111.1109         estimate D2E/DX2                !
 ! A125  A(2,32,60)            111.0775         estimate D2E/DX2                !
 ! A126  A(2,32,61)            112.2372         estimate D2E/DX2                !
 ! A127  A(59,32,60)           107.8825         estimate D2E/DX2                !
 ! A128  A(59,32,61)           107.7796         estimate D2E/DX2                !
 ! A129  A(60,32,61)           106.5229         estimate D2E/DX2                !
 ! A130  A(14,62,63)           109.9715         estimate D2E/DX2                !
 ! A131  A(14,62,64)           111.9813         estimate D2E/DX2                !
 ! A132  A(14,62,65)           111.6998         estimate D2E/DX2                !
 ! A133  A(63,62,64)           107.395          estimate D2E/DX2                !
 ! A134  A(63,62,65)           108.1481         estimate D2E/DX2                !
 ! A135  A(64,62,65)           107.4631         estimate D2E/DX2                !
 ! D1    D(6,1,2,3)              0.911          estimate D2E/DX2                !
 ! D2    D(6,1,2,32)          -175.7627         estimate D2E/DX2                !
 ! D3    D(33,1,2,3)           177.7786         estimate D2E/DX2                !
 ! D4    D(33,1,2,32)            1.1049         estimate D2E/DX2                !
 ! D5    D(2,1,6,5)            -30.052          estimate D2E/DX2                !
 ! D6    D(2,1,6,34)            92.3609         estimate D2E/DX2                !
 ! D7    D(2,1,6,35)          -151.4797         estimate D2E/DX2                !
 ! D8    D(33,1,6,5)           153.0138         estimate D2E/DX2                !
 ! D9    D(33,1,6,34)          -84.5733         estimate D2E/DX2                !
 ! D10   D(33,1,6,35)           31.5862         estimate D2E/DX2                !
 ! D11   D(1,2,3,4)             12.5182         estimate D2E/DX2                !
 ! D12   D(1,2,3,20)           136.4017         estimate D2E/DX2                !
 ! D13   D(1,2,3,31)          -104.3392         estimate D2E/DX2                !
 ! D14   D(32,2,3,4)          -170.6479         estimate D2E/DX2                !
 ! D15   D(32,2,3,20)          -46.7644         estimate D2E/DX2                !
 ! D16   D(32,2,3,31)           72.4947         estimate D2E/DX2                !
 ! D17   D(1,2,32,59)            0.5758         estimate D2E/DX2                !
 ! D18   D(1,2,32,60)          120.6792         estimate D2E/DX2                !
 ! D19   D(1,2,32,61)         -120.1864         estimate D2E/DX2                !
 ! D20   D(3,2,32,59)         -176.2417         estimate D2E/DX2                !
 ! D21   D(3,2,32,60)          -56.1383         estimate D2E/DX2                !
 ! D22   D(3,2,32,61)           62.9961         estimate D2E/DX2                !
 ! D23   D(2,3,4,5)              3.9522         estimate D2E/DX2                !
 ! D24   D(2,3,4,7)            130.6317         estimate D2E/DX2                !
 ! D25   D(2,3,4,24)          -116.5004         estimate D2E/DX2                !
 ! D26   D(20,3,4,5)          -123.7889         estimate D2E/DX2                !
 ! D27   D(20,3,4,7)             2.8906         estimate D2E/DX2                !
 ! D28   D(20,3,4,24)          115.7585         estimate D2E/DX2                !
 ! D29   D(31,3,4,5)           122.6733         estimate D2E/DX2                !
 ! D30   D(31,3,4,7)          -110.6472         estimate D2E/DX2                !
 ! D31   D(31,3,4,24)            2.2207         estimate D2E/DX2                !
 ! D32   D(2,3,20,17)         -153.6421         estimate D2E/DX2                !
 ! D33   D(2,3,20,42)           82.9514         estimate D2E/DX2                !
 ! D34   D(2,3,20,43)          -35.4151         estimate D2E/DX2                !
 ! D35   D(4,3,20,17)          -24.694          estimate D2E/DX2                !
 ! D36   D(4,3,20,42)         -148.1004         estimate D2E/DX2                !
 ! D37   D(4,3,20,43)           93.533          estimate D2E/DX2                !
 ! D38   D(31,3,20,17)          86.835          estimate D2E/DX2                !
 ! D39   D(31,3,20,42)         -36.5715         estimate D2E/DX2                !
 ! D40   D(31,3,20,43)        -154.9381         estimate D2E/DX2                !
 ! D41   D(3,4,5,6)            -30.7123         estimate D2E/DX2                !
 ! D42   D(3,4,5,10)            94.3891         estimate D2E/DX2                !
 ! D43   D(3,4,5,22)          -148.1791         estimate D2E/DX2                !
 ! D44   D(7,4,5,6)           -153.4823         estimate D2E/DX2                !
 ! D45   D(7,4,5,10)           -28.3809         estimate D2E/DX2                !
 ! D46   D(7,4,5,22)            89.0509         estimate D2E/DX2                !
 ! D47   D(24,4,5,6)            91.093          estimate D2E/DX2                !
 ! D48   D(24,4,5,10)         -143.8057         estimate D2E/DX2                !
 ! D49   D(24,4,5,22)          -26.3739         estimate D2E/DX2                !
 ! D50   D(3,4,7,8)            -89.2126         estimate D2E/DX2                !
 ! D51   D(3,4,7,17)            20.0512         estimate D2E/DX2                !
 ! D52   D(3,4,7,21)           148.849          estimate D2E/DX2                !
 ! D53   D(5,4,7,8)             41.2827         estimate D2E/DX2                !
 ! D54   D(5,4,7,17)           150.5465         estimate D2E/DX2                !
 ! D55   D(5,4,7,21)           -80.6557         estimate D2E/DX2                !
 ! D56   D(24,4,7,8)           156.3924         estimate D2E/DX2                !
 ! D57   D(24,4,7,17)          -94.3438         estimate D2E/DX2                !
 ! D58   D(24,4,7,21)           34.454          estimate D2E/DX2                !
 ! D59   D(3,4,24,23)          134.1432         estimate D2E/DX2                !
 ! D60   D(5,4,24,23)            5.7286         estimate D2E/DX2                !
 ! D61   D(7,4,24,23)         -114.0474         estimate D2E/DX2                !
 ! D62   D(4,5,6,1)             42.5232         estimate D2E/DX2                !
 ! D63   D(4,5,6,34)           -79.5177         estimate D2E/DX2                !
 ! D64   D(4,5,6,35)           165.9443         estimate D2E/DX2                !
 ! D65   D(10,5,6,1)           -87.1432         estimate D2E/DX2                !
 ! D66   D(10,5,6,34)          150.8158         estimate D2E/DX2                !
 ! D67   D(10,5,6,35)           36.2779         estimate D2E/DX2                !
 ! D68   D(22,5,6,1)           154.9304         estimate D2E/DX2                !
 ! D69   D(22,5,6,34)           32.8894         estimate D2E/DX2                !
 ! D70   D(22,5,6,35)          -81.6485         estimate D2E/DX2                !
 ! D71   D(4,5,10,9)             3.6208         estimate D2E/DX2                !
 ! D72   D(4,5,10,16)         -176.6358         estimate D2E/DX2                !
 ! D73   D(6,5,10,9)           130.5175         estimate D2E/DX2                !
 ! D74   D(6,5,10,16)          -49.7391         estimate D2E/DX2                !
 ! D75   D(22,5,10,9)         -110.3177         estimate D2E/DX2                !
 ! D76   D(22,5,10,16)          69.4257         estimate D2E/DX2                !
 ! D77   D(4,5,22,23)           36.6095         estimate D2E/DX2                !
 ! D78   D(4,5,22,45)          -80.9562         estimate D2E/DX2                !
 ! D79   D(4,5,22,46)          158.3429         estimate D2E/DX2                !
 ! D80   D(6,5,22,23)          -82.0578         estimate D2E/DX2                !
 ! D81   D(6,5,22,45)          160.3764         estimate D2E/DX2                !
 ! D82   D(6,5,22,46)           39.6755         estimate D2E/DX2                !
 ! D83   D(10,5,22,23)         159.9981         estimate D2E/DX2                !
 ! D84   D(10,5,22,45)          42.4324         estimate D2E/DX2                !
 ! D85   D(10,5,22,46)         -78.2685         estimate D2E/DX2                !
 ! D86   D(4,7,8,9)            -32.6941         estimate D2E/DX2                !
 ! D87   D(4,7,8,19)           144.915          estimate D2E/DX2                !
 ! D88   D(17,7,8,9)          -147.1183         estimate D2E/DX2                !
 ! D89   D(17,7,8,19)           30.4908         estimate D2E/DX2                !
 ! D90   D(21,7,8,9)            91.8292         estimate D2E/DX2                !
 ! D91   D(21,7,8,19)          -90.5617         estimate D2E/DX2                !
 ! D92   D(4,7,17,18)         -155.4234         estimate D2E/DX2                !
 ! D93   D(4,7,17,20)          -34.8414         estimate D2E/DX2                !
 ! D94   D(4,7,17,30)           84.5525         estimate D2E/DX2                !
 ! D95   D(8,7,17,18)          -36.6207         estimate D2E/DX2                !
 ! D96   D(8,7,17,20)           83.9614         estimate D2E/DX2                !
 ! D97   D(8,7,17,30)         -156.6447         estimate D2E/DX2                !
 ! D98   D(21,7,17,18)          77.9923         estimate D2E/DX2                !
 ! D99   D(21,7,17,20)        -161.4257         estimate D2E/DX2                !
 ! D100  D(21,7,17,30)         -42.0318         estimate D2E/DX2                !
 ! D101  D(4,7,21,44)          -35.371          estimate D2E/DX2                !
 ! D102  D(8,7,21,44)         -160.8745         estimate D2E/DX2                !
 ! D103  D(17,7,21,44)          89.101          estimate D2E/DX2                !
 ! D104  D(7,8,9,10)             6.6732         estimate D2E/DX2                !
 ! D105  D(7,8,9,11)          -175.2802         estimate D2E/DX2                !
 ! D106  D(19,8,9,10)         -170.5896         estimate D2E/DX2                !
 ! D107  D(19,8,9,11)            7.457          estimate D2E/DX2                !
 ! D108  D(7,8,19,18)          -11.0889         estimate D2E/DX2                !
 ! D109  D(9,8,19,18)          166.518          estimate D2E/DX2                !
 ! D110  D(8,9,10,5)             8.5375         estimate D2E/DX2                !
 ! D111  D(8,9,10,16)         -171.1923         estimate D2E/DX2                !
 ! D112  D(11,9,10,5)         -169.4589         estimate D2E/DX2                !
 ! D113  D(11,9,10,16)          10.8113         estimate D2E/DX2                !
 ! D114  D(8,9,11,12)           27.361          estimate D2E/DX2                !
 ! D115  D(8,9,11,13)         -149.9023         estimate D2E/DX2                !
 ! D116  D(10,9,11,12)        -154.6823         estimate D2E/DX2                !
 ! D117  D(10,9,11,13)          28.0544         estimate D2E/DX2                !
 ! D118  D(9,11,13,14)        -104.5498         estimate D2E/DX2                !
 ! D119  D(9,11,13,15)         130.922          estimate D2E/DX2                !
 ! D120  D(9,11,13,36)          12.0522         estimate D2E/DX2                !
 ! D121  D(12,11,13,14)         78.2084         estimate D2E/DX2                !
 ! D122  D(12,11,13,15)        -46.3197         estimate D2E/DX2                !
 ! D123  D(12,11,13,36)       -165.1896         estimate D2E/DX2                !
 ! D124  D(11,13,14,37)         59.1099         estimate D2E/DX2                !
 ! D125  D(11,13,14,38)        172.8614         estimate D2E/DX2                !
 ! D126  D(11,13,14,62)        -64.9447         estimate D2E/DX2                !
 ! D127  D(15,13,14,37)       -178.1376         estimate D2E/DX2                !
 ! D128  D(15,13,14,38)        -64.3862         estimate D2E/DX2                !
 ! D129  D(15,13,14,62)         57.8078         estimate D2E/DX2                !
 ! D130  D(36,13,14,37)        -59.0049         estimate D2E/DX2                !
 ! D131  D(36,13,14,38)         54.7466         estimate D2E/DX2                !
 ! D132  D(36,13,14,62)        176.9405         estimate D2E/DX2                !
 ! D133  D(11,13,15,39)        -64.278          estimate D2E/DX2                !
 ! D134  D(11,13,15,40)        176.2473         estimate D2E/DX2                !
 ! D135  D(11,13,15,41)         55.6362         estimate D2E/DX2                !
 ! D136  D(14,13,15,39)        172.0422         estimate D2E/DX2                !
 ! D137  D(14,13,15,40)         52.5675         estimate D2E/DX2                !
 ! D138  D(14,13,15,41)        -68.0436         estimate D2E/DX2                !
 ! D139  D(36,13,15,39)         54.4772         estimate D2E/DX2                !
 ! D140  D(36,13,15,40)        -64.9976         estimate D2E/DX2                !
 ! D141  D(36,13,15,41)        174.3913         estimate D2E/DX2                !
 ! D142  D(13,14,62,63)        177.2322         estimate D2E/DX2                !
 ! D143  D(13,14,62,64)        -63.4462         estimate D2E/DX2                !
 ! D144  D(13,14,62,65)         57.1463         estimate D2E/DX2                !
 ! D145  D(37,14,62,63)         54.2734         estimate D2E/DX2                !
 ! D146  D(37,14,62,64)        173.595          estimate D2E/DX2                !
 ! D147  D(37,14,62,65)        -65.8125         estimate D2E/DX2                !
 ! D148  D(38,14,62,63)        -61.8546         estimate D2E/DX2                !
 ! D149  D(38,14,62,64)         57.467          estimate D2E/DX2                !
 ! D150  D(38,14,62,65)        178.0595         estimate D2E/DX2                !
 ! D151  D(7,17,18,19)          31.4732         estimate D2E/DX2                !
 ! D152  D(7,17,18,28)         -83.9566         estimate D2E/DX2                !
 ! D153  D(7,17,18,29)         146.1701         estimate D2E/DX2                !
 ! D154  D(20,17,18,19)        -78.396          estimate D2E/DX2                !
 ! D155  D(20,17,18,28)        166.1741         estimate D2E/DX2                !
 ! D156  D(20,17,18,29)         36.3008         estimate D2E/DX2                !
 ! D157  D(30,17,18,19)        151.3328         estimate D2E/DX2                !
 ! D158  D(30,17,18,28)         35.9029         estimate D2E/DX2                !
 ! D159  D(30,17,18,29)        -93.9704         estimate D2E/DX2                !
 ! D160  D(7,17,20,3)           36.0476         estimate D2E/DX2                !
 ! D161  D(7,17,20,42)         159.1162         estimate D2E/DX2                !
 ! D162  D(7,17,20,43)         -81.6354         estimate D2E/DX2                !
 ! D163  D(18,17,20,3)         146.5308         estimate D2E/DX2                !
 ! D164  D(18,17,20,42)        -90.4007         estimate D2E/DX2                !
 ! D165  D(18,17,20,43)         28.8477         estimate D2E/DX2                !
 ! D166  D(30,17,20,3)         -83.1899         estimate D2E/DX2                !
 ! D167  D(30,17,20,42)         39.8787         estimate D2E/DX2                !
 ! D168  D(30,17,20,43)        159.1271         estimate D2E/DX2                !
 ! D169  D(17,18,19,8)         -13.4382         estimate D2E/DX2                !
 ! D170  D(28,18,19,8)         105.9531         estimate D2E/DX2                !
 ! D171  D(29,18,19,8)        -135.5894         estimate D2E/DX2                !
 ! D172  D(17,18,28,53)        168.9746         estimate D2E/DX2                !
 ! D173  D(17,18,28,54)        -72.0947         estimate D2E/DX2                !
 ! D174  D(17,18,28,55)         48.3203         estimate D2E/DX2                !
 ! D175  D(19,18,28,53)         56.8866         estimate D2E/DX2                !
 ! D176  D(19,18,28,54)        175.8174         estimate D2E/DX2                !
 ! D177  D(19,18,28,55)        -63.7676         estimate D2E/DX2                !
 ! D178  D(29,18,28,53)        -58.3854         estimate D2E/DX2                !
 ! D179  D(29,18,28,54)         60.5454         estimate D2E/DX2                !
 ! D180  D(29,18,28,55)       -179.0396         estimate D2E/DX2                !
 ! D181  D(17,18,29,56)         65.8517         estimate D2E/DX2                !
 ! D182  D(17,18,29,57)       -175.221          estimate D2E/DX2                !
 ! D183  D(17,18,29,58)        -54.9796         estimate D2E/DX2                !
 ! D184  D(19,18,29,56)        178.4285         estimate D2E/DX2                !
 ! D185  D(19,18,29,57)        -62.6441         estimate D2E/DX2                !
 ! D186  D(19,18,29,58)         57.5973         estimate D2E/DX2                !
 ! D187  D(28,18,29,56)        -65.1767         estimate D2E/DX2                !
 ! D188  D(28,18,29,57)         53.7507         estimate D2E/DX2                !
 ! D189  D(28,18,29,58)        173.9921         estimate D2E/DX2                !
 ! D190  D(5,22,23,24)         -33.9023         estimate D2E/DX2                !
 ! D191  D(5,22,23,25)        -154.938          estimate D2E/DX2                !
 ! D192  D(5,22,23,47)          80.3442         estimate D2E/DX2                !
 ! D193  D(45,22,23,24)         83.3218         estimate D2E/DX2                !
 ! D194  D(45,22,23,25)        -37.7139         estimate D2E/DX2                !
 ! D195  D(45,22,23,47)       -162.4317         estimate D2E/DX2                !
 ! D196  D(46,22,23,24)       -154.5392         estimate D2E/DX2                !
 ! D197  D(46,22,23,25)         84.425          estimate D2E/DX2                !
 ! D198  D(46,22,23,47)        -40.2928         estimate D2E/DX2                !
 ! D199  D(22,23,24,4)          17.9649         estimate D2E/DX2                !
 ! D200  D(25,23,24,4)         145.8912         estimate D2E/DX2                !
 ! D201  D(47,23,24,4)         -98.4743         estimate D2E/DX2                !
 ! D202  D(22,23,25,26)        176.1521         estimate D2E/DX2                !
 ! D203  D(22,23,25,27)         -5.8143         estimate D2E/DX2                !
 ! D204  D(24,23,25,26)         57.1011         estimate D2E/DX2                !
 ! D205  D(24,23,25,27)       -124.8653         estimate D2E/DX2                !
 ! D206  D(47,23,25,26)        -58.0117         estimate D2E/DX2                !
 ! D207  D(47,23,25,27)        120.0219         estimate D2E/DX2                !
 ! D208  D(23,25,26,48)        -58.6924         estimate D2E/DX2                !
 ! D209  D(23,25,26,49)         59.4951         estimate D2E/DX2                !
 ! D210  D(23,25,26,50)       -179.9856         estimate D2E/DX2                !
 ! D211  D(27,25,26,48)        123.2619         estimate D2E/DX2                !
 ! D212  D(27,25,26,49)       -118.5506         estimate D2E/DX2                !
 ! D213  D(27,25,26,50)          1.9687         estimate D2E/DX2                !
 ! D214  D(23,25,27,51)       -178.2227         estimate D2E/DX2                !
 ! D215  D(23,25,27,52)          1.0672         estimate D2E/DX2                !
 ! D216  D(26,25,27,51)         -0.3354         estimate D2E/DX2                !
 ! D217  D(26,25,27,52)        178.9546         estimate D2E/DX2                !
 --------------------------------------------------------------------------------
 Trust Radius=3.00D-01 FncErr=1.00D-07 GrdErr=1.00D-06
 Number of steps in this run=    390 maximum allowed number of steps=    390.
 GradGradGradGradGradGradGradGradGradGradGradGradGradGradGradGradGradGrad

 Stoichiometry    C26H34O5
 Framework group  C1[X(C26H34O5)]
 Deg. of freedom   189
 Full point group                 C1      NOp   1
 Largest Abelian subgroup         C1      NOp   1
 Largest concise Abelian subgroup C1      NOp   1
                         Standard orientation:                         
 ---------------------------------------------------------------------
 Center     Atomic      Atomic             Coordinates (Angstroms)
 Number     Number       Type             X           Y           Z
 ---------------------------------------------------------------------
      1          6           0        0.728396   -0.887103    3.140185
      2          6           0        0.996040    0.417855    3.014143
      3          6           0        1.536079    0.989523    1.719900
      4          6           0        1.472143    0.046719    0.477086
      5          6           0        0.792910   -1.338496    0.621637
      6          6           0        0.944395   -1.905207    2.055509
      7          6           0        0.828623    0.913154   -0.637123
      8          6           0       -0.687852    0.836507   -0.670515
      9          6           0       -1.421881   -0.268673   -0.339031
     10          6           0       -0.707439   -1.423410    0.223252
     11          6           0       -2.918940   -0.255633   -0.514052
     12          8           0       -3.414483    0.466286   -1.368365
     13          6           0       -3.821064   -1.086670    0.405766
     14          6           0       -4.347970   -2.352556   -0.327436
     15          6           0       -4.960404   -0.199955    0.937382
     16          8           0       -1.261306   -2.505987    0.398551
     17          6           0        0.998192    2.395473   -0.243399
     18          6           0       -0.160026    3.081253   -1.002406
     19          8           0       -1.199167    2.013622   -1.018531
     20          6           0        0.861747    2.325692    1.290364
     21          8           0        1.297109    0.557903   -1.923806
     22          6           0        1.608285   -2.199692   -0.380595
     23          6           0        3.021236   -1.646819   -0.227589
     24          8           0        2.829161   -0.226872    0.042399
     25          6           0        3.995325   -1.785800   -1.379062
     26          6           0        5.335183   -1.125471   -1.157830
     27          6           0        3.712025   -2.472924   -2.490046
     28          6           0        0.185871    3.414196   -2.455319
     29          6           0       -0.804906    4.280304   -0.312112
     30          1           0        1.973860    2.785518   -0.548776
     31          1           0        2.607792    1.190630    1.859683
     32          6           0        0.846090    1.375862    4.170293
     33          1           0        0.375748   -1.263140    4.099848
     34          1           0        1.948072   -2.340820    2.173313
     35          1           0        0.242560   -2.738396    2.153760
     36          1           0       -3.227053   -1.446083    1.250206
     37          1           0       -3.482448   -2.943257   -0.643654
     38          1           0       -4.873949   -2.959460    0.422982
     39          1           0       -4.571038    0.607780    1.568594
     40          1           0       -5.652359   -0.796409    1.543733
     41          1           0       -5.518382    0.259186    0.117761
     42          1           0        1.302285    3.191098    1.793518
     43          1           0       -0.197449    2.297746    1.569236
     44          1           0        2.234165    0.317537   -1.778685
     45          1           0        1.242232   -2.035161   -1.397539
     46          1           0        1.534229   -3.265554   -0.150371
     47          1           0        3.498575   -2.078936    0.666230
     48          1           0        5.217717   -0.052380   -0.968305
     49          1           0        5.836944   -1.545961   -0.275405
     50          1           0        5.994410   -1.258580   -2.020530
     51          1           0        4.445339   -2.576720   -3.285879
     52          1           0        2.758165   -2.964794   -2.651197
     53          1           0       -0.720231    3.712295   -2.992124
     54          1           0        0.894766    4.249708   -2.486503
     55          1           0        0.631907    2.554833   -2.958703
     56          1           0       -0.082017    5.100477   -0.239784
     57          1           0       -1.661428    4.629724   -0.896662
     58          1           0       -1.157247    4.037881    0.693196
     59          1           0        0.513466    0.854844    5.073291
     60          1           0        1.800222    1.872095    4.398928
     61          1           0        0.122497    2.173408    3.957743
     62          6           0       -5.278465   -2.105096   -1.519835
     63          1           0       -5.547996   -3.058989   -1.988884
     64          1           0       -6.210151   -1.613682   -1.217964
     65          1           0       -4.805286   -1.474235   -2.278056
 ---------------------------------------------------------------------
 Rotational constants (GHZ):      0.1943683      0.1257822      0.1136330
 Standard basis: 6-311+G(d) (5D, 7F)
 There are   784 symmetry adapted basis functions of A   symmetry.
 Integral buffers will be    131072 words long.
 Raffenetti 2 integral format.
 Two-electron integral symmetry is turned on.
   784 basis functions,  1286 primitive gaussians,   815 cartesian basis functions
   115 alpha electrons      115 beta electrons
       nuclear repulsion energy      3500.6681321047 Hartrees.
 NAtoms=   65 NActive=   65 NUniq=   65 SFac= 1.00D+00 NAtFMM=   50 NAOKFM=T Big=T
 One-electron integrals computed using PRISM.
 NBasis=   784 RedAO= T  NBF=   784
 NBsUse=   777 1.00D-06 NBFU=   777
 Harris functional with IExCor=  402 diagonalized for initial guess.
 ExpMin= 4.38D-02 ExpMax= 8.59D+03 ExpMxC= 1.30D+03 IAcc=2 IRadAn=         0 AccDes= 0.00D+00
 HarFok:  IExCor=  402 AccDes= 0.00D+00 IRadAn=         0 IDoV= 1
 ScaDFX=  1.000000  1.000000  1.000000  1.000000
 FoFCou: FMM=F IPFlag=           0 FMFlag=      100000 FMFlg1=        2001
         NFxFlg=           0 DoJE=T BraDBF=F KetDBF=T FulRan=T
         Omega=  0.000000  0.000000  1.000000  0.000000  0.000000 ICntrl=     500 IOpCl=  0
         NMat0=    1 NMatS0=    1 NMatT0=    0 NMatD0=    1 NMtDS0=    0 NMtDT0=    0
         I1Cent=           4 NGrid=           0.
 Petite list used in FoFCou.
 Initial guess orbital symmetries:
       Occupied  (A) (A) (A) (A) (A) (A) (A) (A) (A) (A) (A) (A)
                 (A) (A) (A) (A) (A) (A) (A) (A) (A) (A) (A) (A)
                 (A) (A) (A) (A) (A) (A) (A) (A) (A) (A) (A) (A)
                 (A) (A) (A) (A) (A) (A) (A) (A) (A) (A) (A) (A)
                 (A) (A) (A) (A) (A) (A) (A) (A) (A) (A) (A) (A)
                 (A) (A) (A) (A) (A) (A) (A) (A) (A) (A) (A) (A)
                 (A) (A) (A) (A) (A) (A) (A) (A) (A) (A) (A) (A)
                 (A) (A) (A) (A) (A) (A) (A) (A) (A) (A) (A) (A)
                 (A) (A) (A) (A) (A) (A) (A) (A) (A) (A) (A) (A)
                 (A) (A) (A) (A) (A) (A) (A)
       Virtual   (A) (A) (A) (A) (A) (A) (A) (A) (A) (A) (A) (A)
                 (A) (A) (A) (A) (A) (A) (A) (A) (A) (A) (A) (A)
                 (A) (A) (A) (A) (A) (A) (A) (A) (A) (A) (A) (A)
                 (A) (A) (A) (A) (A) (A) (A) (A) (A) (A) (A) (A)
                 (A) (A) (A) (A) (A) (A) (A) (A) (A) (A) (A) (A)
                 (A) (A) (A) (A) (A) (A) (A) (A) (A) (A) (A) (A)
                 (A) (A) (A) (A) (A) (A) (A) (A) (A) (A) (A) (A)
                 (A) (A) (A) (A) (A) (A) (A) (A) (A) (A) (A) (A)
                 (A) (A) (A) (A) (A) (A) (A) (A) (A) (A) (A) (A)
                 (A) (A) (A) (A) (A) (A) (A) (A) (A) (A) (A) (A)
                 (A) (A) (A) (A) (A) (A) (A) (A) (A) (A) (A) (A)
                 (A) (A) (A) (A) (A) (A) (A) (A) (A) (A) (A) (A)
                 (A) (A) (A) (A) (A) (A) (A) (A) (A) (A) (A) (A)
                 (A) (A) (A) (A) (A) (A) (A) (A) (A) (A) (A) (A)
                 (A) (A) (A) (A) (A) (A) (A) (A) (A) (A) (A) (A)
                 (A) (A) (A) (A) (A) (A) (A) (A) (A) (A) (A) (A)
                 (A) (A) (A) (A) (A) (A) (A) (A) (A) (A) (A) (A)
                 (A) (A) (A) (A) (A) (A) (A) (A) (A) (A) (A) (A)
                 (A) (A) (A) (A) (A) (A) (A) (A) (A) (A) (A) (A)
                 (A) (A) (A) (A) (A) (A) (A) (A) (A) (A) (A) (A)
                 (A) (A) (A) (A) (A) (A) (A) (A) (A) (A) (A) (A)
                 (A) (A) (A) (A) (A) (A) (A) (A) (A) (A) (A) (A)
                 (A) (A) (A) (A) (A) (A) (A) (A) (A) (A) (A) (A)
                 (A) (A) (A) (A) (A) (A) (A) (A) (A) (A) (A) (A)
                 (A) (A) (A) (A) (A) (A) (A) (A) (A) (A) (A) (A)
                 (A) (A) (A) (A) (A) (A) (A) (A) (A) (A) (A) (A)
                 (A) (A) (A) (A) (A) (A) (A) (A) (A) (A) (A) (A)
                 (A) (A) (A) (A) (A) (A) (A) (A) (A) (A) (A) (A)
                 (A) (A) (A) (A) (A) (A) (A) (A) (A) (A) (A) (A)
                 (A) (A) (A) (A) (A) (A) (A) (A) (A) (A) (A) (A)
                 (A) (A) (A) (A) (A) (A) (A) (A) (A) (A) (A) (A)
                 (A) (A) (A) (A) (A) (A) (A) (A) (A) (A) (A) (A)
                 (A) (A) (A) (A) (A) (A) (A) (A) (A) (A) (A) (A)
                 (A) (A) (A) (A) (A) (A) (A) (A) (A) (A) (A) (A)
                 (A) (A) (A) (A) (A) (A) (A) (A) (A) (A) (A) (A)
                 (A) (A) (A) (A) (A) (A) (A) (A) (A) (A) (A) (A)
                 (A) (A) (A) (A) (A) (A) (A) (A) (A) (A) (A) (A)
                 (A) (A) (A) (A) (A) (A) (A) (A) (A) (A) (A) (A)
                 (A) (A) (A) (A) (A) (A) (A) (A) (A) (A) (A) (A)
                 (A) (A) (A) (A) (A) (A) (A) (A) (A) (A) (A) (A)
                 (A) (A) (A) (A) (A) (A) (A) (A) (A) (A) (A) (A)
                 (A) (A) (A) (A) (A) (A) (A) (A) (A) (A) (A) (A)
                 (A) (A) (A) (A) (A) (A) (A) (A) (A) (A) (A) (A)
                 (A) (A) (A) (A) (A) (A) (A) (A) (A) (A) (A) (A)
                 (A) (A) (A) (A) (A) (A) (A) (A) (A) (A) (A) (A)
                 (A) (A) (A) (A) (A) (A) (A) (A) (A) (A) (A) (A)
                 (A) (A) (A) (A) (A) (A) (A) (A) (A) (A) (A) (A)
                 (A) (A) (A) (A) (A) (A) (A) (A) (A) (A) (A) (A)
                 (A) (A) (A) (A) (A) (A) (A) (A) (A) (A) (A) (A)
                 (A) (A) (A) (A) (A) (A) (A) (A) (A) (A) (A) (A)
                 (A) (A) (A) (A) (A) (A) (A) (A) (A) (A) (A) (A)
                 (A) (A) (A) (A) (A) (A) (A) (A) (A) (A) (A) (A)
                 (A) (A) (A) (A) (A) (A) (A) (A) (A) (A) (A) (A)
                 (A) (A) (A) (A) (A) (A) (A) (A) (A) (A) (A) (A)
                 (A) (A) (A) (A) (A) (A) (A) (A) (A) (A) (A) (A)
                 (A) (A)
 The electronic state of the initial guess is 1-A.
 Requested convergence on RMS density matrix=1.00D-08 within 128 cycles.
 Requested convergence on MAX density matrix=1.00D-06.
 Requested convergence on             energy=1.00D-06.
 No special actions if energy rises.
 SCF Done:  E(RB3LYP) =  -1387.64636118     A.U. after   16 cycles
             Convg  =    0.9021D-08             -V/T =  2.0043

 **********************************************************************

            Population analysis using the SCF density.

 **********************************************************************

 Orbital symmetries:
       Occupied  (A) (A) (A) (A) (A) (A) (A) (A) (A) (A) (A) (A)
                 (A) (A) (A) (A) (A) (A) (A) (A) (A) (A) (A) (A)
                 (A) (A) (A) (A) (A) (A) (A) (A) (A) (A) (A) (A)
                 (A) (A) (A) (A) (A) (A) (A) (A) (A) (A) (A) (A)
                 (A) (A) (A) (A) (A) (A) (A) (A) (A) (A) (A) (A)
                 (A) (A) (A) (A) (A) (A) (A) (A) (A) (A) (A) (A)
                 (A) (A) (A) (A) (A) (A) (A) (A) (A) (A) (A) (A)
                 (A) (A) (A) (A) (A) (A) (A) (A) (A) (A) (A) (A)
                 (A) (A) (A) (A) (A) (A) (A) (A) (A) (A) (A) (A)
                 (A) (A) (A) (A) (A) (A) (A)
       Virtual   (A) (A) (A) (A) (A) (A) (A) (A) (A) (A) (A) (A)
                 (A) (A) (A) (A) (A) (A) (A) (A) (A) (A) (A) (A)
                 (A) (A) (A) (A) (A) (A) (A) (A) (A) (A) (A) (A)
                 (A) (A) (A) (A) (A) (A) (A) (A) (A) (A) (A) (A)
                 (A) (A) (A) (A) (A) (A) (A) (A) (A) (A) (A) (A)
                 (A) (A) (A) (A) (A) (A) (A) (A) (A) (A) (A) (A)
                 (A) (A) (A) (A) (A) (A) (A) (A) (A) (A) (A) (A)
                 (A) (A) (A) (A) (A) (A) (A) (A) (A) (A) (A) (A)
                 (A) (A) (A) (A) (A) (A) (A) (A) (A) (A) (A) (A)
                 (A) (A) (A) (A) (A) (A) (A) (A) (A) (A) (A) (A)
                 (A) (A) (A) (A) (A) (A) (A) (A) (A) (A) (A) (A)
                 (A) (A) (A) (A) (A) (A) (A) (A) (A) (A) (A) (A)
                 (A) (A) (A) (A) (A) (A) (A) (A) (A) (A) (A) (A)
                 (A) (A) (A) (A) (A) (A) (A) (A) (A) (A) (A) (A)
                 (A) (A) (A) (A) (A) (A) (A) (A) (A) (A) (A) (A)
                 (A) (A) (A) (A) (A) (A) (A) (A) (A) (A) (A) (A)
                 (A) (A) (A) (A) (A) (A) (A) (A) (A) (A) (A) (A)
                 (A) (A) (A) (A) (A) (A) (A) (A) (A) (A) (A) (A)
                 (A) (A) (A) (A) (A) (A) (A) (A) (A) (A) (A) (A)
                 (A) (A) (A) (A) (A) (A) (A) (A) (A) (A) (A) (A)
                 (A) (A) (A) (A) (A) (A) (A) (A) (A) (A) (A) (A)
                 (A) (A) (A) (A) (A) (A) (A) (A) (A) (A) (A) (A)
                 (A) (A) (A) (A) (A) (A) (A) (A) (A) (A) (A) (A)
                 (A) (A) (A) (A) (A) (A) (A) (A) (A) (A) (A) (A)
                 (A) (A) (A) (A) (A) (A) (A) (A) (A) (A) (A) (A)
                 (A) (A) (A) (A) (A) (A) (A) (A) (A) (A) (A) (A)
                 (A) (A) (A) (A) (A) (A) (A) (A) (A) (A) (A) (A)
                 (A) (A) (A) (A) (A) (A) (A) (A) (A) (A) (A) (A)
                 (A) (A) (A) (A) (A) (A) (A) (A) (A) (A) (A) (A)
                 (A) (A) (A) (A) (A) (A) (A) (A) (A) (A) (A) (A)
                 (A) (A) (A) (A) (A) (A) (A) (A) (A) (A) (A) (A)
                 (A) (A) (A) (A) (A) (A) (A) (A) (A) (A) (A) (A)
                 (A) (A) (A) (A) (A) (A) (A) (A) (A) (A) (A) (A)
                 (A) (A) (A) (A) (A) (A) (A) (A) (A) (A) (A) (A)
                 (A) (A) (A) (A) (A) (A) (A) (A) (A) (A) (A) (A)
                 (A) (A) (A) (A) (A) (A) (A) (A) (A) (A) (A) (A)
                 (A) (A) (A) (A) (A) (A) (A) (A) (A) (A) (A) (A)
                 (A) (A) (A) (A) (A) (A) (A) (A) (A) (A) (A) (A)
                 (A) (A) (A) (A) (A) (A) (A) (A) (A) (A) (A) (A)
                 (A) (A) (A) (A) (A) (A) (A) (A) (A) (A) (A) (A)
                 (A) (A) (A) (A) (A) (A) (A) (A) (A) (A) (A) (A)
                 (A) (A) (A) (A) (A) (A) (A) (A) (A) (A) (A) (A)
                 (A) (A) (A) (A) (A) (A) (A) (A) (A) (A) (A) (A)
                 (A) (A) (A) (A) (A) (A) (A) (A) (A) (A) (A) (A)
                 (A) (A) (A) (A) (A) (A) (A) (A) (A) (A) (A) (A)
                 (A) (A) (A) (A) (A) (A) (A) (A) (A) (A) (A) (A)
                 (A) (A) (A) (A) (A) (A) (A) (A) (A) (A) (A) (A)
                 (A) (A) (A) (A) (A) (A) (A) (A) (A) (A) (A) (A)
                 (A) (A) (A) (A) (A) (A) (A) (A) (A) (A) (A) (A)
                 (A) (A) (A) (A) (A) (A) (A) (A) (A) (A) (A) (A)
                 (A) (A) (A) (A) (A) (A) (A) (A) (A) (A) (A) (A)
                 (A) (A) (A) (A) (A) (A) (A) (A) (A) (A) (A) (A)
                 (A) (A) (A) (A) (A) (A) (A) (A) (A) (A) (A) (A)
                 (A) (A) (A) (A) (A) (A) (A) (A) (A) (A) (A) (A)
                 (A) (A) (A) (A) (A) (A) (A) (A) (A) (A) (A) (A)
                 (A) (A)
 The electronic state is 1-A.
 Alpha  occ. eigenvalues --  -19.17980 -19.14937 -19.14108 -19.10685 -19.09743
 Alpha  occ. eigenvalues --  -10.27233 -10.26619 -10.25914 -10.25538 -10.25453
 Alpha  occ. eigenvalues --  -10.25176 -10.24453 -10.20916 -10.19978 -10.19939
 Alpha  occ. eigenvalues --  -10.19844 -10.19154 -10.18854 -10.18740 -10.18623
 Alpha  occ. eigenvalues --  -10.18103 -10.17836 -10.17775 -10.17677 -10.17649
 Alpha  occ. eigenvalues --  -10.17458 -10.16843 -10.16568 -10.15207 -10.14737
 Alpha  occ. eigenvalues --  -10.13738  -1.10674  -1.07258  -1.04245  -1.03835
 Alpha  occ. eigenvalues --   -1.02934  -0.87865  -0.84648  -0.83370  -0.82445
 Alpha  occ. eigenvalues --   -0.81274  -0.79376  -0.77643  -0.75277  -0.74255
 Alpha  occ. eigenvalues --   -0.72704  -0.71281  -0.70668  -0.70291  -0.68874
 Alpha  occ. eigenvalues --   -0.66347  -0.64895  -0.64409  -0.62368  -0.61688
 Alpha  occ. eigenvalues --   -0.60534  -0.58983  -0.58067  -0.55609  -0.54563
 Alpha  occ. eigenvalues --   -0.53843  -0.52797  -0.51840  -0.51408  -0.50285
 Alpha  occ. eigenvalues --   -0.49239  -0.48168  -0.47570  -0.47312  -0.46755
 Alpha  occ. eigenvalues --   -0.46284  -0.45573  -0.45201  -0.44468  -0.44310
 Alpha  occ. eigenvalues --   -0.43594  -0.43218  -0.43038  -0.42553  -0.42364
 Alpha  occ. eigenvalues --   -0.41937  -0.41421  -0.41235  -0.40939  -0.40227
 Alpha  occ. eigenvalues --   -0.40072  -0.39309  -0.39140  -0.38884  -0.38605
 Alpha  occ. eigenvalues --   -0.38394  -0.38222  -0.38027  -0.37716  -0.37290
 Alpha  occ. eigenvalues --   -0.37250  -0.36634  -0.36130  -0.35470  -0.35310
 Alpha  occ. eigenvalues --   -0.34811  -0.34634  -0.33762  -0.33407  -0.33221
 Alpha  occ. eigenvalues --   -0.32433  -0.31305  -0.30969  -0.29423  -0.27961
 Alpha  occ. eigenvalues --   -0.27468  -0.25913  -0.25529  -0.24693  -0.23559
 Alpha virt. eigenvalues --   -0.06606  -0.03032  -0.01994  -0.01346  -0.00258
 Alpha virt. eigenvalues --   -0.00080   0.00254   0.01182   0.01487   0.01766
 Alpha virt. eigenvalues --    0.02203   0.02268   0.03054   0.03247   0.03588
 Alpha virt. eigenvalues --    0.03672   0.04155   0.04292   0.04485   0.04768
 Alpha virt. eigenvalues --    0.05275   0.05539   0.05683   0.06097   0.06420
 Alpha virt. eigenvalues --    0.06631   0.06698   0.07059   0.07414   0.07567
 Alpha virt. eigenvalues --    0.07914   0.08103   0.08281   0.08639   0.08772
 Alpha virt. eigenvalues --    0.08985   0.09400   0.09505   0.09560   0.09800
 Alpha virt. eigenvalues --    0.10091   0.10540   0.10563   0.10846   0.11152
 Alpha virt. eigenvalues --    0.11269   0.11488   0.11958   0.12091   0.12167
 Alpha virt. eigenvalues --    0.12293   0.12478   0.12816   0.13012   0.13163
 Alpha virt. eigenvalues --    0.13527   0.13865   0.14287   0.14332   0.14817
 Alpha virt. eigenvalues --    0.14947   0.15305   0.15616   0.15728   0.15982
 Alpha virt. eigenvalues --    0.16085   0.16727   0.16885   0.17057   0.17220
 Alpha virt. eigenvalues --    0.17437   0.17514   0.17855   0.17913   0.18129
 Alpha virt. eigenvalues --    0.18496   0.18630   0.18639   0.19032   0.19323
 Alpha virt. eigenvalues --    0.19520   0.19614   0.19774   0.19942   0.20017
 Alpha virt. eigenvalues --    0.20353   0.20436   0.20629   0.20831   0.21136
 Alpha virt. eigenvalues --    0.21307   0.21535   0.21616   0.22026   0.22111
 Alpha virt. eigenvalues --    0.22246   0.22437   0.22577   0.22905   0.22975
 Alpha virt. eigenvalues --    0.23122   0.23323   0.23575   0.23694   0.23815
 Alpha virt. eigenvalues --    0.23906   0.24150   0.24415   0.24763   0.24826
 Alpha virt. eigenvalues --    0.25210   0.25342   0.25432   0.25712   0.25827
 Alpha virt. eigenvalues --    0.26271   0.26460   0.26595   0.26924   0.26978
 Alpha virt. eigenvalues --    0.27248   0.27518   0.27957   0.28177   0.28296
 Alpha virt. eigenvalues --    0.28668   0.28904   0.29162   0.29206   0.29325
 Alpha virt. eigenvalues --    0.29672   0.29894   0.30015   0.30181   0.30487
 Alpha virt. eigenvalues --    0.30821   0.31146   0.31644   0.31783   0.31972
 Alpha virt. eigenvalues --    0.32187   0.32539   0.33084   0.33302   0.33433
 Alpha virt. eigenvalues --    0.33970   0.34360   0.34473   0.35456   0.35545
 Alpha virt. eigenvalues --    0.35783   0.35946   0.36667   0.36741   0.36939
 Alpha virt. eigenvalues --    0.37124   0.37585   0.37886   0.38128   0.38551
 Alpha virt. eigenvalues --    0.38592   0.39165   0.39586   0.39919   0.40435
 Alpha virt. eigenvalues --    0.40588   0.41169   0.41421   0.41941   0.42154
 Alpha virt. eigenvalues --    0.42417   0.43022   0.43312   0.43451   0.43568
 Alpha virt. eigenvalues --    0.44103   0.44438   0.44653   0.45295   0.45512
 Alpha virt. eigenvalues --    0.45831   0.46689   0.46886   0.47326   0.47704
 Alpha virt. eigenvalues --    0.48044   0.48065   0.48341   0.49142   0.49448
 Alpha virt. eigenvalues --    0.49815   0.49899   0.50456   0.51364   0.51592
 Alpha virt. eigenvalues --    0.51775   0.52822   0.53277   0.53689   0.53970
 Alpha virt. eigenvalues --    0.54217   0.54771   0.55278   0.55617   0.55903
 Alpha virt. eigenvalues --    0.56705   0.56924   0.57333   0.57412   0.58026
 Alpha virt. eigenvalues --    0.58189   0.58736   0.59062   0.59358   0.59712
 Alpha virt. eigenvalues --    0.60234   0.60351   0.60810   0.60924   0.61096
 Alpha virt. eigenvalues --    0.62035   0.62787   0.63098   0.63870   0.64131
 Alpha virt. eigenvalues --    0.64466   0.65021   0.65354   0.65602   0.65920
 Alpha virt. eigenvalues --    0.66016   0.66798   0.66886   0.67295   0.67753
 Alpha virt. eigenvalues --    0.67909   0.68133   0.68346   0.68875   0.69464
 Alpha virt. eigenvalues --    0.69723   0.69797   0.70040   0.70148   0.70463
 Alpha virt. eigenvalues --    0.70728   0.71204   0.71411   0.71636   0.71912
 Alpha virt. eigenvalues --    0.72209   0.72469   0.72674   0.72906   0.73509
 Alpha virt. eigenvalues --    0.73653   0.73887   0.74064   0.74330   0.75220
 Alpha virt. eigenvalues --    0.75645   0.75924   0.76305   0.76488   0.76877
 Alpha virt. eigenvalues --    0.77226   0.77526   0.78097   0.78412   0.78659
 Alpha virt. eigenvalues --    0.79011   0.79357   0.80043   0.80304   0.80578
 Alpha virt. eigenvalues --    0.81135   0.81810   0.81978   0.82767   0.82929
 Alpha virt. eigenvalues --    0.83880   0.84171   0.84683   0.84874   0.85464
 Alpha virt. eigenvalues --    0.86344   0.86720   0.87092   0.87667   0.88171
 Alpha virt. eigenvalues --    0.88991   0.90149   0.90928   0.92256   0.92589
 Alpha virt. eigenvalues --    0.92908   0.94414   0.95397   0.96008   0.96452
 Alpha virt. eigenvalues --    0.97067   0.97475   0.97608   0.99514   1.00072
 Alpha virt. eigenvalues --    1.02364   1.02510   1.03073   1.03825   1.04488
 Alpha virt. eigenvalues --    1.05720   1.07114   1.08416   1.08742   1.09980
 Alpha virt. eigenvalues --    1.11050   1.12092   1.12252   1.13217   1.13953
 Alpha virt. eigenvalues --    1.15324   1.16281   1.16428   1.17274   1.18731
 Alpha virt. eigenvalues --    1.19535   1.21219   1.22119   1.23481   1.23917
 Alpha virt. eigenvalues --    1.24749   1.25329   1.26198   1.27003   1.27918
 Alpha virt. eigenvalues --    1.28241   1.28841   1.30685   1.31211   1.31677
 Alpha virt. eigenvalues --    1.32083   1.33614   1.34038   1.34960   1.35697
 Alpha virt. eigenvalues --    1.35965   1.37318   1.37656   1.38277   1.39856
 Alpha virt. eigenvalues --    1.40748   1.41718   1.41927   1.42800   1.43445
 Alpha virt. eigenvalues --    1.44590   1.45378   1.46286   1.47139   1.47600
 Alpha virt. eigenvalues --    1.48203   1.49680   1.50764   1.51150   1.51862
 Alpha virt. eigenvalues --    1.52411   1.52786   1.54007   1.54771   1.54970
 Alpha virt. eigenvalues --    1.55901   1.56357   1.57630   1.57947   1.58087
 Alpha virt. eigenvalues --    1.58463   1.59027   1.59291   1.59792   1.60433
 Alpha virt. eigenvalues --    1.60564   1.61072   1.61343   1.62011   1.62636
 Alpha virt. eigenvalues --    1.63104   1.63561   1.64668   1.64889   1.65246
 Alpha virt. eigenvalues --    1.65503   1.66025   1.66245   1.66941   1.67352
 Alpha virt. eigenvalues --    1.67796   1.68823   1.69123   1.69774   1.70380
 Alpha virt. eigenvalues --    1.70808   1.71122   1.72005   1.72452   1.73096
 Alpha virt. eigenvalues --    1.73802   1.74694   1.75008   1.75301   1.76169
 Alpha virt. eigenvalues --    1.76652   1.78084   1.78343   1.78873   1.79162
 Alpha virt. eigenvalues --    1.80419   1.81568   1.82114   1.82939   1.83369
 Alpha virt. eigenvalues --    1.83973   1.84771   1.85478   1.85955   1.86659
 Alpha virt. eigenvalues --    1.87604   1.88057   1.89300   1.90299   1.91760
 Alpha virt. eigenvalues --    1.92065   1.92318   1.94578   1.95337   1.96347
 Alpha virt. eigenvalues --    1.98155   1.98878   1.99917   2.01032   2.02412
 Alpha virt. eigenvalues --    2.03489   2.03838   2.04598   2.05672   2.06938
 Alpha virt. eigenvalues --    2.07279   2.08130   2.08688   2.09346   2.10476
 Alpha virt. eigenvalues --    2.11077   2.12220   2.14630   2.15000   2.16021
 Alpha virt. eigenvalues --    2.16661   2.17420   2.19432   2.19575   2.20465
 Alpha virt. eigenvalues --    2.22215   2.22650   2.23316   2.24406   2.26406
 Alpha virt. eigenvalues --    2.26672   2.27870   2.30170   2.31580   2.33159
 Alpha virt. eigenvalues --    2.34992   2.37629   2.38052   2.39706   2.42468
 Alpha virt. eigenvalues --    2.43964   2.47446   2.48793   2.49722   2.50880
 Alpha virt. eigenvalues --    2.52278   2.53656   2.54198   2.54317   2.54983
 Alpha virt. eigenvalues --    2.56084   2.56194   2.56513   2.57033   2.57353
 Alpha virt. eigenvalues --    2.57869   2.58433   2.59466   2.60292   2.60711
 Alpha virt. eigenvalues --    2.62352   2.62940   2.64098   2.65094   2.66203
 Alpha virt. eigenvalues --    2.66927   2.68158   2.69725   2.70740   2.70953
 Alpha virt. eigenvalues --    2.71605   2.72321   2.72989   2.74888   2.75020
 Alpha virt. eigenvalues --    2.75771   2.77683   2.81284   2.82096   2.84137
 Alpha virt. eigenvalues --    2.85221   2.87240   2.88558   2.89433   2.89724
 Alpha virt. eigenvalues --    2.90385   2.92818   2.94051   2.94245   2.94825
 Alpha virt. eigenvalues --    2.95713   2.97396   2.97647   2.99170   2.99825
 Alpha virt. eigenvalues --    3.00238   3.00825   3.01183   3.02907   3.03003
 Alpha virt. eigenvalues --    3.04178   3.05877   3.07302   3.07736   3.08708
 Alpha virt. eigenvalues --    3.10118   3.10855   3.11408   3.12565   3.13726
 Alpha virt. eigenvalues --    3.14430   3.16172   3.16439   3.16806   3.17902
 Alpha virt. eigenvalues --    3.18531   3.19430   3.20089   3.21685   3.22109
 Alpha virt. eigenvalues --    3.22472   3.23142   3.24394   3.25200   3.25708
 Alpha virt. eigenvalues --    3.25995   3.26630   3.27409   3.28566   3.29582
 Alpha virt. eigenvalues --    3.30497   3.31200   3.31643   3.32635   3.33973
 Alpha virt. eigenvalues --    3.34438   3.35441   3.36349   3.37310   3.38684
 Alpha virt. eigenvalues --    3.39209   3.40668   3.41991   3.42388   3.44118
 Alpha virt. eigenvalues --    3.46103   3.46972   3.50850   3.52348   3.53089
 Alpha virt. eigenvalues --    3.53837   3.59635   3.61840   3.65204   3.73713
 Alpha virt. eigenvalues --    3.76715   3.77948   3.79374   3.87535   3.88757
 Alpha virt. eigenvalues --    3.89149   3.94709   3.97476   4.01262   4.02107
 Alpha virt. eigenvalues --    4.05307   4.06515   4.08816   4.09263   4.12126
 Alpha virt. eigenvalues --    4.15125   4.17594   4.20274   4.22316   4.22920
 Alpha virt. eigenvalues --    4.23390   4.28311   4.32955   4.34920   4.44847
 Alpha virt. eigenvalues --    4.60780   5.14158   5.14717   5.17080   5.21627
 Alpha virt. eigenvalues --    5.23363   5.29121   5.31363   5.34942   5.42469
 Alpha virt. eigenvalues --    5.43933   5.56973   5.66092   5.73672   5.79825
 Alpha virt. eigenvalues --    5.83709  23.45167  23.46873  23.52738  23.53387
 Alpha virt. eigenvalues --   23.60670  23.64666  23.65943  23.66727  23.68943
 Alpha virt. eigenvalues --   23.70441  23.73462  23.74497  23.76218  23.78585
 Alpha virt. eigenvalues --   23.78789  23.80035  23.82361  23.84297  23.86845
 Alpha virt. eigenvalues --   23.87130  23.88710  23.89076  23.95807  24.12333
 Alpha virt. eigenvalues --   24.18898  24.21882  49.98915  49.99831  50.02537
 Alpha virt. eigenvalues --   50.03881  50.06191
          Condensed to atoms (all electrons):
 Mulliken atomic charges:
              1
     1  C   -0.250380
     2  C    0.642504
     3  C   -0.186393
     4  C   -0.713739
     5  C    1.118719
     6  C   -0.843398
     7  C   -1.203107
     8  C    0.523476
     9  C    0.859114
    10  C   -1.142450
    11  C   -0.243721
    12  O   -0.193431
    13  C    0.648471
    14  C   -0.450846
    15  C   -0.998542
    16  O   -0.169579
    17  C   -0.305477
    18  C    0.659802
    19  O    0.182527
    20  C   -1.126839
    21  O    0.002833
    22  C   -0.427678
    23  C   -0.554242
    24  O    0.050696
    25  C    0.940699
    26  C   -1.019414
    27  C   -0.988084
    28  C   -0.700160
    29  C   -0.746039
    30  H    0.240886
    31  H    0.271473
    32  C   -1.082375
    33  H    0.202448
    34  H    0.241583
    35  H    0.277860
    36  H    0.230343
    37  H    0.262746
    38  H    0.215350
    39  H    0.241945
    40  H    0.238605
    41  H    0.281651
    42  H    0.269052
    43  H    0.277808
    44  H    0.287493
    45  H    0.269159
    46  H    0.286343
    47  H    0.234064
    48  H    0.267926
    49  H    0.263194
    50  H    0.254803
    51  H    0.230730
    52  H    0.239323
    53  H    0.266153
    54  H    0.245356
    55  H    0.311081
    56  H    0.260485
    57  H    0.273936
    58  H    0.257686
    59  H    0.256687
    60  H    0.254632
    61  H    0.256692
    62  C   -0.982923
    63  H    0.235181
    64  H    0.236766
    65  H    0.260537
 Sum of Mulliken atomic charges =   0.00000
 Mulliken charges with hydrogens summed into heavy atoms:
              1
     1  C   -0.047932
     2  C    0.642504
     3  C    0.085080
     4  C   -0.713739
     5  C    1.118719
     6  C   -0.323954
     7  C   -1.203107
     8  C    0.523476
     9  C    0.859114
    10  C   -1.142450
    11  C   -0.243721
    12  O   -0.193431
    13  C    0.878814
    14  C    0.027250
    15  C   -0.236341
    16  O   -0.169579
    17  C   -0.064592
    18  C    0.659802
    19  O    0.182527
    20  C   -0.579979
    21  O    0.290326
    22  C    0.127824
    23  C   -0.320178
    24  O    0.050696
    25  C    0.940699
    26  C   -0.233490
    27  C   -0.518032
    28  C    0.122430
    29  C    0.046066
    32  C   -0.314363
    62  C   -0.250439
 Sum of Mulliken charges with hydrogens summed into heavy atoms =   0.00000
 Electronic spatial extent (au):  <R**2>=          11687.5529
 Charge=              0.0000 electrons
 Dipole moment (field-independent basis, Debye):
    X=              5.6547    Y=              2.4902    Z=              2.7147  Tot=              6.7489
 Quadrupole moment (field-independent basis, Debye-Ang):
   XX=           -193.5928   YY=           -179.7977   ZZ=           -188.3128
   XY=             -0.9736   XZ=             -8.6631   YZ=              2.7162
 Traceless Quadrupole moment (field-independent basis, Debye-Ang):
   XX=             -6.3584   YY=              7.4367   ZZ=             -1.0784
   XY=             -0.9736   XZ=             -8.6631   YZ=              2.7162
 Octapole moment (field-independent basis, Debye-Ang**2):
  XXX=             73.3186  YYY=             71.0585  ZZZ=              6.3397  XYY=             21.3792
  XXY=            -17.0441  XXZ=              7.0499  XZZ=             20.1597  YZZ=             -4.1150
  YYZ=            -14.4362  XYZ=              0.9185
 Hexadecapole moment (field-independent basis, Debye-Ang**3):
 XXXX=          -8435.0862 YYYY=          -4374.3628 ZZZZ=          -3248.0911 XXXY=              3.4210
 XXXZ=           -183.7649 YYYX=            -13.2154 YYYZ=            -54.5085 ZZZX=            -43.8512
 ZZZY=             -6.6395 XXYY=          -2150.1330 XXZZ=          -1960.8244 YYZZ=          -1241.4255
 XXYZ=             19.0118 YYXZ=             11.2778 ZZXY=            -17.2573
 N-N= 3.500668132105D+03 E-N=-1.023441638593D+04  KE= 1.381712424457D+03
 Calling FoFJK, ICntrl=      2127 FMM=T ISym2X=0 I1Cent= 0 IOpClX= 0 NMat=1 NMatS=1 NMatT=0.
 ***** Axes restored to original set *****
 -------------------------------------------------------------------
 Center     Atomic                   Forces (Hartrees/Bohr)
 Number     Number              X              Y              Z
 -------------------------------------------------------------------
      1        6           0.000560095    0.001967791   -0.000180210
      2        6          -0.000043418   -0.002109591    0.000352849
      3        6          -0.000346747    0.000432366   -0.000229719
      4        6          -0.000226331    0.000801521    0.001139348
      5        6          -0.000116190   -0.000301675   -0.000144691
      6        6           0.000072898   -0.000007169   -0.000192181
      7        6          -0.002306025    0.000709424    0.001523859
      8        6          -0.002880589    0.001322630   -0.000576295
      9        6           0.001071396    0.000500757    0.000008105
     10        6          -0.002778339   -0.006078499    0.000441499
     11        6          -0.003414202    0.004580504   -0.004715327
     12        8           0.003585379   -0.005543044    0.005524751
     13        6           0.000142008    0.000433248    0.000194058
     14        6           0.000333687   -0.000441223   -0.000269116
     15        6           0.000086322    0.000244894   -0.000265591
     16        8           0.003132240    0.007426483   -0.001610239
     17        6           0.000457510    0.000118048   -0.000034528
     18        6           0.000709375    0.001595730   -0.000340703
     19        8           0.001622732   -0.004476755    0.001386883
     20        6          -0.000457827    0.000070236    0.000140572
     21        8           0.006116765   -0.000208962    0.002524495
     22        6           0.000416134   -0.000175086   -0.000556337
     23        6           0.000635443   -0.001979751   -0.000214500
     24        8          -0.000427053   -0.000168588    0.000925244
     25        6           0.000174514   -0.001395980   -0.001748536
     26        6          -0.000030599    0.000177645    0.000166047
     27        6           0.000445647    0.000834140    0.001852765
     28        6           0.000102647   -0.000094841    0.000449539
     29        6           0.000377299   -0.000344751   -0.000018478
     30        1          -0.001189324   -0.000457615    0.000258831
     31        1          -0.001339867   -0.000284503    0.000237075
     32        6          -0.000010164    0.000396019    0.000106132
     33        1           0.000239905    0.000286107   -0.000755497
     34        1          -0.001584757    0.000501877   -0.000097822
     35        1           0.001596123    0.000953144    0.000401552
     36        1          -0.000703059    0.000411504   -0.000968061
     37        1          -0.001498090    0.000302645    0.000663682
     38        1           0.000993580    0.000548808   -0.000828217
     39        1          -0.000854282   -0.001018997   -0.000795936
     40        1           0.000833696    0.000965863   -0.000761065
     41        1           0.000258637   -0.000522946    0.001820050
     42        1          -0.000768534   -0.001156830   -0.000700059
     43        1           0.001615622    0.000181088   -0.000173442
     44        1          -0.004447199    0.001009212   -0.003906018
     45        1           0.000243634   -0.000892694    0.001524211
     46        1           0.000062113    0.001460070   -0.000260729
     47        1          -0.000514231    0.000806731   -0.001245540
     48        1           0.000618555   -0.001571058   -0.000347379
     49        1          -0.000650776    0.000653758   -0.001330353
     50        1          -0.000832604    0.000296232    0.001371116
     51        1          -0.000700875   -0.000004347    0.000718890
     52        1           0.000922482    0.000561894    0.000067685
     53        1           0.001487655   -0.000386517    0.000512393
     54        1          -0.000934700   -0.001157344   -0.000239544
     55        1          -0.000839474    0.001883602    0.000126626
     56        1          -0.001182699   -0.000904323    0.000065970
     57        1           0.001315183   -0.000305607    0.001019192
     58        1           0.000399331    0.000744481   -0.001520158
     59        1           0.000551863    0.001011683   -0.001269667
     60        1          -0.001413682   -0.000704130   -0.000212114
     61        1           0.001103948   -0.001247045    0.000527481
     62        6          -0.000030237    0.000332756    0.000285971
     63        1           0.000299050    0.001423088    0.000489347
     64        1           0.001130065   -0.000819681   -0.000905619
[...]
                 (A) (A) (A) (A) (A) (A) (A) (A) (A) (A) (A) (A)
                 (A) (A) (A) (A) (A) (A) (A) (A) (A) (A) (A) (A)
                 (A) (A) (A) (A) (A) (A) (A) (A) (A) (A) (A) (A)
                 (A) (A)
 The electronic state is 1-A.
 Alpha  occ. eigenvalues --  -19.17842 -19.14747 -19.13986 -19.10675 -19.10089
 Alpha  occ. eigenvalues --  -10.26934 -10.26452 -10.25931 -10.25472 -10.25405
 Alpha  occ. eigenvalues --  -10.25283 -10.24323 -10.20843 -10.19898 -10.19830
 Alpha  occ. eigenvalues --  -10.19737 -10.19049 -10.18767 -10.18512 -10.18446
 Alpha  occ. eigenvalues --  -10.18042 -10.17807 -10.17646 -10.17560 -10.17544
 Alpha  occ. eigenvalues --  -10.17381 -10.16773 -10.16757 -10.15274 -10.15138
 Alpha  occ. eigenvalues --  -10.13671  -1.10587  -1.07032  -1.04478  -1.03787
 Alpha  occ. eigenvalues --   -1.03495  -0.87877  -0.84709  -0.83418  -0.82502
 Alpha  occ. eigenvalues --   -0.81322  -0.79642  -0.77713  -0.75294  -0.74279
 Alpha  occ. eigenvalues --   -0.72788  -0.71540  -0.70759  -0.70322  -0.68920
 Alpha  occ. eigenvalues --   -0.66419  -0.65006  -0.64437  -0.62537  -0.61685
 Alpha  occ. eigenvalues --   -0.60580  -0.59117  -0.58060  -0.55728  -0.54636
 Alpha  occ. eigenvalues --   -0.53772  -0.52940  -0.51773  -0.51410  -0.50306
 Alpha  occ. eigenvalues --   -0.49257  -0.48335  -0.47668  -0.47395  -0.46781
 Alpha  occ. eigenvalues --   -0.46313  -0.45580  -0.45315  -0.44497  -0.44317
 Alpha  occ. eigenvalues --   -0.43764  -0.43148  -0.43061  -0.42610  -0.42383
 Alpha  occ. eigenvalues --   -0.42033  -0.41478  -0.41432  -0.40947  -0.40258
 Alpha  occ. eigenvalues --   -0.40073  -0.39327  -0.39167  -0.38909  -0.38597
 Alpha  occ. eigenvalues --   -0.38441  -0.38352  -0.38024  -0.37830  -0.37497
 Alpha  occ. eigenvalues --   -0.37377  -0.36998  -0.36127  -0.35689  -0.35277
 Alpha  occ. eigenvalues --   -0.34791  -0.34605  -0.33832  -0.33425  -0.33207
 Alpha  occ. eigenvalues --   -0.32423  -0.31542  -0.31227  -0.29349  -0.27846
 Alpha  occ. eigenvalues --   -0.27453  -0.26025  -0.25461  -0.24661  -0.23649
 Alpha virt. eigenvalues --   -0.06311  -0.02945  -0.01917  -0.01365  -0.00308
 Alpha virt. eigenvalues --   -0.00056   0.00236   0.01173   0.01480   0.01745
 Alpha virt. eigenvalues --    0.02125   0.02289   0.03049   0.03206   0.03600
 Alpha virt. eigenvalues --    0.03669   0.04096   0.04262   0.04536   0.04757
 Alpha virt. eigenvalues --    0.05276   0.05545   0.05669   0.06032   0.06354
 Alpha virt. eigenvalues --    0.06491   0.06672   0.07097   0.07484   0.07613
 Alpha virt. eigenvalues --    0.07936   0.08043   0.08225   0.08611   0.08782
 Alpha virt. eigenvalues --    0.09016   0.09371   0.09490   0.09562   0.09748
 Alpha virt. eigenvalues --    0.10183   0.10424   0.10594   0.10957   0.11214
 Alpha virt. eigenvalues --    0.11265   0.11605   0.11961   0.12135   0.12293
 Alpha virt. eigenvalues --    0.12437   0.12596   0.12832   0.12950   0.13178
 Alpha virt. eigenvalues --    0.13503   0.13876   0.14347   0.14387   0.14851
 Alpha virt. eigenvalues --    0.14922   0.15263   0.15597   0.15890   0.16007
 Alpha virt. eigenvalues --    0.16197   0.16701   0.16973   0.17087   0.17246
 Alpha virt. eigenvalues --    0.17433   0.17548   0.17659   0.17924   0.18061
 Alpha virt. eigenvalues --    0.18423   0.18591   0.18711   0.19090   0.19299
 Alpha virt. eigenvalues --    0.19475   0.19594   0.19759   0.20049   0.20197
 Alpha virt. eigenvalues --    0.20382   0.20567   0.20686   0.20989   0.21153
 Alpha virt. eigenvalues --    0.21367   0.21569   0.21647   0.22052   0.22303
 Alpha virt. eigenvalues --    0.22422   0.22535   0.22606   0.22741   0.23081
 Alpha virt. eigenvalues --    0.23248   0.23364   0.23421   0.23710   0.23909
 Alpha virt. eigenvalues --    0.23935   0.24373   0.24503   0.24680   0.24809
 Alpha virt. eigenvalues --    0.25009   0.25278   0.25359   0.25738   0.25819
 Alpha virt. eigenvalues --    0.26287   0.26534   0.26738   0.26794   0.26873
 Alpha virt. eigenvalues --    0.27053   0.27487   0.28006   0.28197   0.28360
 Alpha virt. eigenvalues --    0.28619   0.28823   0.29020   0.29230   0.29472
 Alpha virt. eigenvalues --    0.29752   0.29863   0.30334   0.30423   0.30580
 Alpha virt. eigenvalues --    0.30959   0.30992   0.31714   0.31866   0.32200
 Alpha virt. eigenvalues --    0.32314   0.32576   0.33158   0.33200   0.33509
 Alpha virt. eigenvalues --    0.33773   0.34318   0.34401   0.35661   0.35772
 Alpha virt. eigenvalues --    0.35952   0.36009   0.36194   0.36886   0.37037
 Alpha virt. eigenvalues --    0.37230   0.37558   0.37998   0.38035   0.38315
 Alpha virt. eigenvalues --    0.38597   0.39176   0.39768   0.40341   0.40523
 Alpha virt. eigenvalues --    0.40585   0.41395   0.41584   0.41977   0.42261
 Alpha virt. eigenvalues --    0.42707   0.42955   0.43348   0.43543   0.43637
 Alpha virt. eigenvalues --    0.43932   0.44441   0.44838   0.45453   0.45672
 Alpha virt. eigenvalues --    0.45929   0.46449   0.46947   0.47043   0.47559
 Alpha virt. eigenvalues --    0.47962   0.48192   0.48382   0.49170   0.49397
 Alpha virt. eigenvalues --    0.49728   0.50181   0.50508   0.51273   0.51384
 Alpha virt. eigenvalues --    0.51955   0.52807   0.53221   0.53582   0.54106
 Alpha virt. eigenvalues --    0.54421   0.54683   0.54939   0.55458   0.55766
 Alpha virt. eigenvalues --    0.56717   0.56818   0.57288   0.57458   0.57736
 Alpha virt. eigenvalues --    0.58059   0.58791   0.58959   0.59366   0.59731
 Alpha virt. eigenvalues --    0.60282   0.60504   0.60701   0.61149   0.61354
 Alpha virt. eigenvalues --    0.62121   0.62748   0.63165   0.63885   0.64071
 Alpha virt. eigenvalues --    0.64277   0.64827   0.65165   0.65673   0.65833
 Alpha virt. eigenvalues --    0.66339   0.66645   0.67199   0.67230   0.67666
 Alpha virt. eigenvalues --    0.68047   0.68295   0.68471   0.69068   0.69322
 Alpha virt. eigenvalues --    0.69832   0.69952   0.70022   0.70240   0.70329
 Alpha virt. eigenvalues --    0.70591   0.71015   0.71609   0.71810   0.72176
 Alpha virt. eigenvalues --    0.72408   0.72466   0.72667   0.73108   0.73486
 Alpha virt. eigenvalues --    0.73649   0.73934   0.74161   0.74678   0.75382
 Alpha virt. eigenvalues --    0.75798   0.75873   0.76278   0.76401   0.76872
 Alpha virt. eigenvalues --    0.76982   0.77131   0.78192   0.78478   0.78811
 Alpha virt. eigenvalues --    0.79237   0.79440   0.79993   0.80415   0.80686
 Alpha virt. eigenvalues --    0.81123   0.81648   0.82030   0.82896   0.83188
 Alpha virt. eigenvalues --    0.83904   0.84321   0.84792   0.84967   0.85153
 Alpha virt. eigenvalues --    0.86476   0.86626   0.87096   0.88061   0.88168
 Alpha virt. eigenvalues --    0.89225   0.90293   0.90909   0.91534   0.92124
 Alpha virt. eigenvalues --    0.92626   0.94576   0.95471   0.96007   0.96693
 Alpha virt. eigenvalues --    0.97384   0.97682   0.97793   0.99536   1.00389
 Alpha virt. eigenvalues --    1.01778   1.02519   1.03688   1.03933   1.04883
 Alpha virt. eigenvalues --    1.05786   1.07815   1.08276   1.09081   1.09868
 Alpha virt. eigenvalues --    1.10960   1.11414   1.12263   1.13631   1.14067
 Alpha virt. eigenvalues --    1.15300   1.16340   1.17013   1.17800   1.17924
 Alpha virt. eigenvalues --    1.19682   1.21094   1.22492   1.23792   1.23943
 Alpha virt. eigenvalues --    1.24875   1.25537   1.26763   1.26996   1.27886
 Alpha virt. eigenvalues --    1.28783   1.29256   1.30699   1.31191   1.31661
 Alpha virt. eigenvalues --    1.32976   1.34515   1.34896   1.35263   1.35924
 Alpha virt. eigenvalues --    1.36219   1.36964   1.37561   1.38001   1.38839
 Alpha virt. eigenvalues --    1.41219   1.41775   1.42306   1.42857   1.43297
 Alpha virt. eigenvalues --    1.43792   1.45294   1.46063   1.46876   1.47429
 Alpha virt. eigenvalues --    1.48405   1.48945   1.50434   1.51055   1.51740
 Alpha virt. eigenvalues --    1.52205   1.52737   1.54079   1.54916   1.55100
 Alpha virt. eigenvalues --    1.55896   1.56574   1.57629   1.57835   1.58143
 Alpha virt. eigenvalues --    1.58323   1.58862   1.59480   1.59746   1.60264
 Alpha virt. eigenvalues --    1.60403   1.61275   1.61617   1.62183   1.62728
 Alpha virt. eigenvalues --    1.63146   1.64029   1.64351   1.64910   1.65162
 Alpha virt. eigenvalues --    1.65717   1.65876   1.66550   1.66939   1.67525
 Alpha virt. eigenvalues --    1.67617   1.68785   1.68937   1.69855   1.70024
 Alpha virt. eigenvalues --    1.70278   1.71265   1.72286   1.72553   1.73301
 Alpha virt. eigenvalues --    1.73863   1.74769   1.75000   1.75099   1.76544
 Alpha virt. eigenvalues --    1.76936   1.78163   1.78402   1.78522   1.79120
 Alpha virt. eigenvalues --    1.80944   1.81647   1.82506   1.82830   1.83495
 Alpha virt. eigenvalues --    1.84071   1.84859   1.85523   1.85914   1.87568
 Alpha virt. eigenvalues --    1.87911   1.88248   1.89523   1.90504   1.91870
 Alpha virt. eigenvalues --    1.92361   1.92419   1.94582   1.95050   1.96505
 Alpha virt. eigenvalues --    1.98256   1.99108   2.00165   2.01545   2.01718
 Alpha virt. eigenvalues --    2.03071   2.03703   2.04599   2.05759   2.06530
 Alpha virt. eigenvalues --    2.07476   2.07917   2.08996   2.09923   2.11047
 Alpha virt. eigenvalues --    2.11844   2.12425   2.14786   2.15235   2.16384
 Alpha virt. eigenvalues --    2.16788   2.17748   2.19592   2.19908   2.20149
 Alpha virt. eigenvalues --    2.22588   2.22977   2.23526   2.24398   2.26436
 Alpha virt. eigenvalues --    2.27752   2.27973   2.30317   2.31691   2.33289
 Alpha virt. eigenvalues --    2.34753   2.37685   2.38248   2.39944   2.42566
 Alpha virt. eigenvalues --    2.44054   2.47497   2.48409   2.49539   2.50788
 Alpha virt. eigenvalues --    2.52142   2.53044   2.54199   2.54510   2.55130
 Alpha virt. eigenvalues --    2.56170   2.56345   2.56589   2.57180   2.57340
 Alpha virt. eigenvalues --    2.57885   2.58863   2.59286   2.60020   2.60775
 Alpha virt. eigenvalues --    2.62175   2.63212   2.64633   2.65025   2.66259
 Alpha virt. eigenvalues --    2.67093   2.68586   2.69347   2.70797   2.71205
 Alpha virt. eigenvalues --    2.71975   2.72577   2.73203   2.74891   2.75293
 Alpha virt. eigenvalues --    2.76262   2.77479   2.81533   2.82482   2.84677
 Alpha virt. eigenvalues --    2.85077   2.87189   2.88945   2.89546   2.89993
 Alpha virt. eigenvalues --    2.90616   2.93399   2.93913   2.94270   2.95334
 Alpha virt. eigenvalues --    2.96032   2.97880   2.98260   2.98979   2.99609
 Alpha virt. eigenvalues --    3.00321   3.00906   3.01322   3.02530   3.03088
 Alpha virt. eigenvalues --    3.04136   3.05817   3.07289   3.07890   3.09040
 Alpha virt. eigenvalues --    3.09842   3.10971   3.11765   3.12796   3.13867
 Alpha virt. eigenvalues --    3.14491   3.16351   3.16884   3.17190   3.18190
 Alpha virt. eigenvalues --    3.18855   3.19636   3.20221   3.22170   3.22584
 Alpha virt. eigenvalues --    3.22809   3.23943   3.24992   3.25747   3.26273
 Alpha virt. eigenvalues --    3.26549   3.27051   3.27685   3.29002   3.29924
 Alpha virt. eigenvalues --    3.30579   3.31428   3.31942   3.33051   3.34479
 Alpha virt. eigenvalues --    3.34878   3.35428   3.36633   3.37750   3.39349
 Alpha virt. eigenvalues --    3.39622   3.41448   3.42404   3.42971   3.45138
 Alpha virt. eigenvalues --    3.46908   3.47305   3.51508   3.52744   3.53499
 Alpha virt. eigenvalues --    3.54379   3.60032   3.61983   3.64402   3.74410
 Alpha virt. eigenvalues --    3.77348   3.78265   3.79992   3.87629   3.89180
 Alpha virt. eigenvalues --    3.89554   3.96410   3.97769   4.01617   4.02665
 Alpha virt. eigenvalues --    4.05515   4.06331   4.08738   4.09722   4.12346
 Alpha virt. eigenvalues --    4.14961   4.17654   4.19918   4.22212   4.22978
 Alpha virt. eigenvalues --    4.23638   4.28606   4.31971   4.33167   4.45184
 Alpha virt. eigenvalues --    4.61304   5.14265   5.15942   5.17212   5.21618
 Alpha virt. eigenvalues --    5.23504   5.30323   5.31643   5.34515   5.41526
 Alpha virt. eigenvalues --    5.42631   5.56986   5.66383   5.73777   5.79350
 Alpha virt. eigenvalues --    5.83812  23.45130  23.46795  23.52209  23.53516
 Alpha virt. eigenvalues --   23.60685  23.64629  23.66268  23.66939  23.69137
 Alpha virt. eigenvalues --   23.70984  23.73447  23.74777  23.76604  23.78495
 Alpha virt. eigenvalues --   23.78995  23.80272  23.82613  23.84660  23.87196
 Alpha virt. eigenvalues --   23.87268  23.88815  23.89677  23.96541  24.15311
 Alpha virt. eigenvalues --   24.20004  24.23138  49.99069  49.99661  50.02575
 Alpha virt. eigenvalues --   50.03965  50.06644
          Condensed to atoms (all electrons):
 Mulliken atomic charges:
              1
     1  C   -0.340137
     2  C    0.668560
     3  C   -0.327743
     4  C   -0.693931
     5  C    1.252419
     6  C   -0.810288
     7  C   -1.206187
     8  C    0.466937
     9  C    0.927452
    10  C   -0.892704
    11  C   -0.453344
    12  O   -0.198450
    13  C    0.623048
    14  C   -0.460700
    15  C   -1.018835
    16  O   -0.176299
    17  C   -0.317915
    18  C    0.650477
    19  O    0.168377
    20  C   -1.015506
    21  O   -0.013679
    22  C   -0.430475
    23  C   -0.630928
    24  O    0.052718
    25  C    0.997319
    26  C   -1.016187
    27  C   -1.018876
    28  C   -0.698410
    29  C   -0.736497
    30  H    0.240414
    31  H    0.273099
    32  C   -1.092733
    33  H    0.201611
    34  H    0.242166
    35  H    0.276792
    36  H    0.233260
    37  H    0.260090
    38  H    0.213973
    39  H    0.237751
    40  H    0.244815
    41  H    0.280429
    42  H    0.266969
    43  H    0.274602
    44  H    0.293419
    45  H    0.269843
    46  H    0.286661
    47  H    0.236857
    48  H    0.268549
    49  H    0.263355
    50  H    0.255201
    51  H    0.230895
    52  H    0.239421
    53  H    0.266725
    54  H    0.246771
    55  H    0.311991
    56  H    0.262438
    57  H    0.272532
    58  H    0.256545
    59  H    0.257083
    60  H    0.255237
    61  H    0.257234
    62  C   -0.968193
    63  H    0.235469
    64  H    0.233316
    65  H    0.265197
 Sum of Mulliken atomic charges =   0.00000
 Mulliken charges with hydrogens summed into heavy atoms:
              1
     1  C   -0.138526
     2  C    0.668560
     3  C   -0.054644
     4  C   -0.693931
     5  C    1.252419
     6  C   -0.291330
     7  C   -1.206187
     8  C    0.466937
     9  C    0.927452
    10  C   -0.892704
    11  C   -0.453344
    12  O   -0.198450
    13  C    0.856307
    14  C    0.013363
    15  C   -0.255840
    16  O   -0.176299
    17  C   -0.077502
    18  C    0.650477
    19  O    0.168377
    20  C   -0.473934
    21  O    0.279741
    22  C    0.126029
    23  C   -0.394071
    24  O    0.052718
    25  C    0.997319
    26  C   -0.229082
    27  C   -0.548560
    28  C    0.127078
    29  C    0.055019
    32  C   -0.323179
    62  C   -0.234211
 Sum of Mulliken charges with hydrogens summed into heavy atoms =   0.00000
 Electronic spatial extent (au):  <R**2>=          11704.6257
 Charge=              0.0000 electrons
 Dipole moment (field-independent basis, Debye):
    X=              5.3089    Y=              2.7640    Z=              3.3731  Tot=              6.8703
 Quadrupole moment (field-independent basis, Debye-Ang):
   XX=           -191.6510   YY=           -179.9716   ZZ=           -189.5423
   XY=             -2.2859   XZ=            -10.1296   YZ=              2.1579
 Traceless Quadrupole moment (field-independent basis, Debye-Ang):
   XX=             -4.5960   YY=              7.0834   ZZ=             -2.4874
   XY=             -2.2859   XZ=            -10.1296   YZ=              2.1579
 Octapole moment (field-independent basis, Debye-Ang**2):
  XXX=             70.2783  YYY=             73.6230  ZZZ=              8.3755  XYY=             18.2410
  XXY=            -12.1076  XXZ=              9.3361  XZZ=             23.2980  YZZ=             -5.9706
  YYZ=            -10.2310  XYZ=              3.0401
 Hexadecapole moment (field-independent basis, Debye-Ang**3):
 XXXX=          -8541.6513 YYYY=          -4303.4879 ZZZZ=          -3189.1720 XXXY=             -8.8810
 XXXZ=           -196.2426 YYYX=            -14.1342 YYYZ=            -55.7787 ZZZX=            -49.3784
 ZZZY=             -1.4194 XXYY=          -2162.7493 XXZZ=          -1980.9976 YYZZ=          -1221.9491
 XXYZ=             13.4392 YYXZ=             15.2582 ZZXY=            -11.1837
 N-N= 3.500837346125D+03 E-N=-1.023486759904D+04  KE= 1.381922021809D+03
 1\1\GINC-B0801\FOpt\RB3LYP\6-311+G(d)\C26H34O5\CAOFEI\13-Apr-2021\0\\#
  opt b3lyp/6-311+g(d) geom=connectivity\\Title Card Required\\0,1\C,0.
 6668768587,-0.9695031037,3.0626429059\C,0.9148814112,0.3390705226,2.97
 01678466\C,1.4730221981,0.946352243,1.7020308702\C,1.4717408162,0.0276
 465612,0.4396947646\C,0.8201424327,-1.3774779785,0.537121255\C,0.93274
 22153,-1.9602912068,1.9664352978\C,0.844215349,0.9071776681,-0.6744727
 942\C,-0.6664883068,0.7924483812,-0.759814384\C,-1.3744809183,-0.33320
 50856,-0.4726382541\C,-0.6600457489,-1.4865765016,0.0800949897\C,-2.86
 75897676,-0.3725848293,-0.6864770237\O,-3.3506208784,0.1764412487,-1.6
 576251094\C,-3.7594074933,-1.0306719818,0.3704756695\C,-4.4708011216,-
 2.2972420075,-0.1745383072\C,-4.7450151799,0.0178793248,0.9148282873\O
 ,-1.2074216131,-2.573988213,0.2028186327\C,0.9606283025,2.3822788385,-
 0.2422612455\C,-0.1909538205,3.058839252,-1.0185577542\O,-1.2006318072
 ,1.9612375472,-1.0946759522\C,0.7812541941,2.2740474756,1.2827415938\O
 ,1.3603189088,0.6057446687,-1.9573863222\C,1.6942149643,-2.2080680737,
 -0.4394147475\C,3.0844405633,-1.6234578898,-0.2285491216\O,2.847486931
 2,-0.2100688138,0.0464012993\C,4.1105160896,-1.7384668662,-1.334638593
 3\C,5.422740523,-1.050259129,-1.0546669644\C,3.8940507314,-2.437110866
 4,-2.450334396\C,0.1875137551,3.445350029,-2.4472799863\C,-0.882997142
 1,4.2198926973,-0.3147605078\H,1.9319953669,2.8041155628,-0.5094801555
 \H,2.5328242534,1.1695670717,1.8791249761\C,0.7256947638,1.2707253557,
 4.1397493136\H,0.2989744775,-1.3722505884,4.0042287163\H,1.9375529483,
 -2.3788289905,2.1102505456\H,0.2506504995,-2.809978598,2.0335910617\H,
 -3.1251285235,-1.365975846,1.1935421897\H,-3.7018904434,-2.9911597609,
 -0.5241444482\H,-4.9454754719,-2.7860244817,0.6856567774\H,-4.21837594
 75,0.8386122278,1.4115733429\H,-5.4144152589,-0.4390027956,1.650201396
 2\H,-5.3518368148,0.4494530495,0.1180073714\H,1.186314035,3.1355376457
 ,1.816598732\H,-0.2816153935,2.2184274296,1.5317146119\H,2.2962874211,
 0.3834878298,-1.8231723568\H,1.3598050177,-2.0542865312,-1.46662031\H,
 1.6392691898,-3.2744202098,-0.2159658545\H,3.5338843913,-2.0483964161,
 0.6801753966\H,5.2805319536,0.0209964496,-0.8873535443\H,5.8857789361,
 -1.4479458421,-0.1440355834\H,6.1275995129,-1.1816036789,-1.8777399392
 \H,4.6643807471,-2.5316405137,-3.2095461318\H,2.9596914356,-2.94754232
 91,-2.6526798754\H,-0.7048176448,3.7505233531,-2.9982672515\H,0.883347
 3175,4.2893995428,-2.433009631\H,0.6576136777,2.6157601534,-2.97231253
 38\H,-0.1838702426,5.0518957339,-0.1933158564\H,-1.7253007223,4.571832
 3162,-0.9137753063\H,-1.2624772055,3.9437824103,0.6689622326\H,0.39179
 3141,0.7287879072,5.026802986\H,1.6628600972,1.7816629574,4.3929221595
 \H,-0.009911489,2.0548194566,3.9327158269\C,-5.5183233311,-2.081273163
 5,-1.2703189937\H,-5.9323317049,-3.0443172426,-1.5849599756\H,-6.35433
 76527,-1.4665968633,-0.9248096772\H,-5.0942497832,-1.593388513,-2.1492
 561609\\Version=EM64L-G09RevB.01\State=1-A\HF=-1387.64717\RMSD=6.093e-
 09\RMSF=8.080e-06\Dipole=2.1096851,1.1220475,1.2635125\Quadrupole=-3.5
 698383,5.4292898,-1.8594515,-1.9197965,-7.4264772,1.384858\PG=C01 [X(C
 26H34O5)]\\@


 Mondays are the potholes in the road of life.
                                -- Tom Wilson
 Job cpu time:  1 days  1 hours 42 minutes 29.6 seconds.
 File lengths (MBytes):  RWF=    372 Int=      0 D2E=      0 Chk=     38 Scr=      1
 Normal termination of Gaussian 09 at Tue Apr 13 20:28:43 2021.
