 Entering Gaussian System, Link 0=g09
 Initial command:
 /public/software/g09/g09/l1.exe /tmp/Gau-20038.inp -scrdir=/tmp/
 Entering Link 1 = /public/software/g09/g09/l1.exe PID=     20039.
  
 Copyright (c) 1988,1990,1992,1993,1995,1998,2003,2009,2010,
            Gaussian, Inc.  All Rights Reserved.
  
 This is part of the Gaussian(R) 09 program.  It is based on
 the Gaussian(R) 03 system (copyright 2003, Gaussian, Inc.),
 the Gaussian(R) 98 system (copyright 1998, Gaussian, Inc.),
 the Gaussian(R) 94 system (copyright 1995, Gaussian, Inc.),
 the Gaussian 92(TM) system (copyright 1992, Gaussian, Inc.),
 the Gaussian 90(TM) system (copyright 1990, Gaussian, Inc.),
 the Gaussian 88(TM) system (copyright 1988, Gaussian, Inc.),
 the Gaussian 86(TM) system (copyright 1986, Carnegie Mellon
 University), and the Gaussian 82(TM) system (copyright 1983,
 Carnegie Mellon University). Gaussian is a federally registered
 trademark of Gaussian, Inc.
  
 This software contains proprietary and confidential information,
 including trade secrets, belonging to Gaussian, Inc.
  
 This software is provided under written license and may be
 used, copied, transmitted, or stored only in accord with that
 written license.
  
 The following legend is applicable only to US Government
 contracts under FAR:
  
                    RESTRICTED RIGHTS LEGEND
  
 Use, reproduction and disclosure by the US Government is
 subject to restrictions as set forth in subparagraphs (a)
 and (c) of the Commercial Computer Software - Restricted
 Rights clause in FAR 52.227-19.
  
 Gaussian, Inc.
 340 Quinnipiac St., Bldg. 40, Wallingford CT 06492
  
  
 ---------------------------------------------------------------
 Warning -- This program may not be used in any manner that
 competes with the business of Gaussian, Inc. or will provide
 assistance to any competitor of Gaussian, Inc.  The licensee
 of this program is prohibited from giving any competitor of
 Gaussian, Inc. access to this program.  By using this program,
 the user acknowledges that Gaussian, Inc. is engaged in the
 business of creating and licensing software in the field of
 computational chemistry and represents and warrants to the
 licensee that it is not a competitor of Gaussian, Inc. and that
 it will not use this program in any manner prohibited above.
 ---------------------------------------------------------------
  

 Cite this work as:
 Gaussian 09, Revision B.01,
 M. J. Frisch, G. W. Trucks, H. B. Schlegel, G. E. Scuseria, 
 M. A. Robb, J. R. Cheeseman, G. Scalmani, V. Barone, B. Mennucci, 
 G. A. Petersson, H. Nakatsuji, M. Caricato, X. Li, H. P. Hratchian, 
 A. F. Izmaylov, J. Bloino, G. Zheng, J. L. Sonnenberg, M. Hada, 
 M. Ehara, K. Toyota, R. Fukuda, J. Hasegawa, M. Ishida, T. Nakajima, 
 Y. Honda, O. Kitao, H. Nakai, T. Vreven, J. A. Montgomery, Jr., 
 J. E. Peralta, F. Ogliaro, M. Bearpark, J. J. Heyd, E. Brothers, 
 K. N. Kudin, V. N. Staroverov, T. Keith, R. Kobayashi, J. Normand, 
 K. Raghavachari, A. Rendell, J. C. Burant, S. S. Iyengar, J. Tomasi, 
 M. Cossi, N. Rega, J. M. Millam, M. Klene, J. E. Knox, J. B. Cross, 
 V. Bakken, C. Adamo, J. Jaramillo, R. Gomperts, R. E. Stratmann, 
 O. Yazyev, A. J. Austin, R. Cammi, C. Pomelli, J. W. Ochterski, 
 R. L. Martin, K. Morokuma, V. G. Zakrzewski, G. A. Voth, 
 P. Salvador, J. J. Dannenberg, S. Dapprich, A. D. Daniels, 
 O. Farkas, J. B. Foresman, J. V. Ortiz, J. Cioslowski, 
 and D. J. Fox, Gaussian, Inc., Wallingford CT, 2010.
 
 ******************************************
 Gaussian 09:  EM64L-G09RevB.01 12-Aug-2010
                13-Apr-2021 
 ******************************************
 %mem=600MW
 %nprocshared=10
 Will use up to   10 processors via shared memory.
 ----------------------------------------
 # opt b3lyp/6-311+g(d) geom=connectivity
 ----------------------------------------
 1/14=-1,18=20,19=15,26=3,38=1,57=2/1,3;
 2/9=110,12=2,17=6,18=5,40=1/2;
 3/5=4,6=6,7=11,11=2,16=1,25=1,30=1,71=1,74=-5/1,2,3;
 4//1;
 5/5=2,38=5/2;
 6/7=2,8=2,9=2,10=2,28=1/1;
 7//1,2,3,16;
 1/14=-1,18=20,19=15/3(2);
 2/9=110/2;
 99//99;
 2/9=110/2;
 3/5=4,6=6,7=11,11=2,16=1,25=1,30=1,71=1,74=-5/1,2,3;
 4/5=5,16=3/1;
 5/5=2,38=5/2;
 7//1,2,3,16;
 1/14=-1,18=20,19=15/3(-5);
 2/9=110/2;
 6/7=2,8=2,9=2,10=2,19=2,28=1/1;
 99/9=1/99;
 -------------------
 Title Card Required
 -------------------
 Symbolic Z-matrix:
 Charge =  0 Multiplicity = 1
 C                     0.5803   -2.08771   2.46458 
 C                     0.60761  -0.81949   2.8928 
 C                     1.17772   0.28882   2.0317 
 C                     1.42646  -0.07169   0.53288 
 C                     0.99238  -1.46826   0.02038 
 C                     1.10735  -2.54083   1.13117 
 C                     0.77128   1.08918  -0.26017 
 C                    -0.69145   0.84922  -0.57997 
 C                    -1.25363  -0.37046  -0.80721 
 C                    -0.42934  -1.56856  -0.60103 
 C                    -2.69929  -0.46447  -1.24298 
 O                    -3.13129   0.35172  -2.04086 
 C                    -3.58574  -1.56159  -0.64743 
 C                    -5.01833  -1.51924  -1.21688 
 C                    -3.54429  -1.53429   0.89512 
 O                    -0.82622  -2.69045  -0.9071 
 C                     0.62353   2.29464   0.69221 
 C                    -0.54698   3.08376   0.06025 
 O                    -1.36868   1.9976   -0.54177 
 C                     0.32906   1.59476   2.03403 
 O                     1.43918   1.34522  -1.48096 
 C                     2.03868  -1.73578  -1.09411 
 C                     3.31242  -1.12694  -0.51423 
 O                     2.85097   0.00951   0.27521 
 C                     4.39502  -0.64497  -1.4585 
 C                     5.57753   0.00795  -0.78326 
 C                     4.33337  -0.81646  -2.78266 
 C                    -0.10219   4.01339  -1.07091 
 C                    -1.46836   3.81658   1.03187 
 H                     1.53957   2.89168   0.73606 
 H                     2.17342   0.54149   2.42347 
 C                     0.1508   -0.43831   4.27953 
 H                     0.20067  -2.86172   3.13048 
 H                     2.1601   -2.83886   1.24718 
 H                     0.57684  -3.43128   0.78244 
 H                    -3.12153  -2.50478  -0.96028 
 H                    -4.95182  -1.48177  -2.30994 
 H                    -5.50237  -2.47276  -0.964 
 H                    -2.53577  -1.71987   1.2765 
 H                    -4.2004   -2.31396   1.29909 
 H                    -3.88506  -0.57233   1.29412 
 H                    -0.73319   1.33321   2.09181 
 H                     0.54979   2.228     2.89804 
 H                     2.38333   1.19263  -1.2773 
 H                     2.13349  -2.80262  -1.31255 
 H                     1.74778  -1.21521  -2.01028 
 H                     3.77826  -1.83359   0.1905 
 H                     6.06385  -0.68956  -0.08737 
 H                     5.26207   0.87291  -0.18866 
 H                     6.32348   0.33742  -1.5124 
 H                     5.14159  -0.48213  -3.42829 
 H                     3.49574  -1.29915  -3.27555 
 H                    -0.97923   4.39011  -1.60655 
 H                     0.44244   4.87014  -0.65728 
 H                     0.54698   3.48935  -1.77424 
 H                    -0.9147    4.61337   1.54085 
 H                    -1.8875    3.14779   1.78757 
 H                    -2.29907   4.27354   0.48524 
 H                    -0.17743  -1.31787   4.84176 
 H                     0.96303   0.04036   4.84524 
 H                    -0.68101   0.27724   4.26082 
 C                    -5.903    -0.36309  -0.7332 
 H                    -6.88619  -0.40932  -1.21612 
 H                    -5.45309   0.60238  -0.98006 
 H                    -6.07127  -0.40057   0.34958 
 

 GradGradGradGradGradGradGradGradGradGradGradGradGradGradGradGradGradGrad
 Berny optimization.
 Initialization pass.
                           ----------------------------
                           !    Initial Parameters    !
                           ! (Angstroms and Degrees)  !
 --------------------------                            --------------------------
 ! Name  Definition              Value          Derivative Info.                !
 --------------------------------------------------------------------------------
 ! R1    R(1,2)                  1.3388         estimate D2E/DX2                !
 ! R2    R(1,6)                  1.5037         estimate D2E/DX2                !
 ! R3    R(1,33)                 1.0893         estimate D2E/DX2                !
 ! R4    R(2,3)                  1.5149         estimate D2E/DX2                !
 ! R5    R(2,32)                 1.509          estimate D2E/DX2                !
 ! R6    R(3,4)                  1.5615         estimate D2E/DX2                !
 ! R7    R(3,20)                 1.5575         estimate D2E/DX2                !
 ! R8    R(3,31)                 1.0994         estimate D2E/DX2                !
 ! R9    R(4,5)                  1.5497         estimate D2E/DX2                !
 ! R10   R(4,7)                  1.5511         estimate D2E/DX2                !
 ! R11   R(4,24)                 1.4499         estimate D2E/DX2                !
 ! R12   R(5,6)                  1.5484         estimate D2E/DX2                !
 ! R13   R(5,10)                 1.5548         estimate D2E/DX2                !
 ! R14   R(5,22)                 1.5519         estimate D2E/DX2                !
 ! R15   R(6,34)                 1.1003         estimate D2E/DX2                !
 ! R16   R(6,35)                 1.0936         estimate D2E/DX2                !
 ! R17   R(7,8)                  1.5164         estimate D2E/DX2                !
 ! R18   R(7,17)                 1.5434         estimate D2E/DX2                !
 ! R19   R(7,21)                 1.4149         estimate D2E/DX2                !
 ! R20   R(8,9)                  1.3621         estimate D2E/DX2                !
 ! R21   R(8,19)                 1.3337         estimate D2E/DX2                !
 ! R22   R(9,10)                 1.4688         estimate D2E/DX2                !
 ! R23   R(9,11)                 1.5128         estimate D2E/DX2                !
 ! R24   R(10,16)                1.2288         estimate D2E/DX2                !
 ! R25   R(11,12)                1.2204         estimate D2E/DX2                !
 ! R26   R(11,13)                1.5311         estimate D2E/DX2                !
 ! R27   R(13,14)                1.5422         estimate D2E/DX2                !
 ! R28   R(13,15)                1.5433         estimate D2E/DX2                !
 ! R29   R(13,36)                1.0968         estimate D2E/DX2                !
 ! R30   R(14,37)                1.0957         estimate D2E/DX2                !
 ! R31   R(14,38)                1.0988         estimate D2E/DX2                !
 ! R32   R(14,62)                1.534          estimate D2E/DX2                !
 ! R33   R(15,39)                1.0941         estimate D2E/DX2                !
 ! R34   R(15,40)                1.0962         estimate D2E/DX2                !
 ! R35   R(15,41)                1.0958         estimate D2E/DX2                !
 ! R36   R(17,18)                1.5467         estimate D2E/DX2                !
 ! R37   R(17,20)                1.5418         estimate D2E/DX2                !
 ! R38   R(17,30)                1.0943         estimate D2E/DX2                !
 ! R39   R(18,19)                1.4891         estimate D2E/DX2                !
 ! R40   R(18,28)                1.5302         estimate D2E/DX2                !
 ! R41   R(18,29)                1.5264         estimate D2E/DX2                !
 ! R42   R(20,42)                1.0955         estimate D2E/DX2                !
 ! R43   R(20,43)                1.0937         estimate D2E/DX2                !
 ! R44   R(21,44)                0.9778         estimate D2E/DX2                !
 ! R45   R(22,23)                1.5262         estimate D2E/DX2                !
 ! R46   R(22,45)                1.0931         estimate D2E/DX2                !
 ! R47   R(22,46)                1.0932         estimate D2E/DX2                !
 ! R48   R(23,24)                1.4587         estimate D2E/DX2                !
 ! R49   R(23,25)                1.5152         estimate D2E/DX2                !
 ! R50   R(23,47)                1.1014         estimate D2E/DX2                !
 ! R51   R(25,26)                1.5102         estimate D2E/DX2                !
 ! R52   R(25,27)                1.3366         estimate D2E/DX2                !
 ! R53   R(26,48)                1.0988         estimate D2E/DX2                !
 ! R54   R(26,49)                1.096          estimate D2E/DX2                !
 ! R55   R(26,50)                1.0939         estimate D2E/DX2                !
 ! R56   R(27,51)                1.0871         estimate D2E/DX2                !
 ! R57   R(27,52)                1.0851         estimate D2E/DX2                !
 ! R58   R(28,53)                1.0945         estimate D2E/DX2                !
 ! R59   R(28,54)                1.0962         estimate D2E/DX2                !
 ! R60   R(28,55)                1.0912         estimate D2E/DX2                !
 ! R61   R(29,56)                1.0957         estimate D2E/DX2                !
 ! R62   R(29,57)                1.0927         estimate D2E/DX2                !
 ! R63   R(29,58)                1.0944         estimate D2E/DX2                !
 ! R64   R(32,59)                1.0943         estimate D2E/DX2                !
 ! R65   R(32,60)                1.0995         estimate D2E/DX2                !
 ! R66   R(32,61)                1.0974         estimate D2E/DX2                !
 ! R67   R(62,63)                1.0964         estimate D2E/DX2                !
 ! R68   R(62,64)                1.0934         estimate D2E/DX2                !
 ! R69   R(62,65)                1.0964         estimate D2E/DX2                !
 ! A1    A(2,1,6)              124.1881         estimate D2E/DX2                !
 ! A2    A(2,1,33)             118.9897         estimate D2E/DX2                !
 ! A3    A(6,1,33)             116.751          estimate D2E/DX2                !
 ! A4    A(1,2,3)              121.2585         estimate D2E/DX2                !
 ! A5    A(1,2,32)             121.8055         estimate D2E/DX2                !
 ! A6    A(3,2,32)             116.8394         estimate D2E/DX2                !
 ! A7    A(2,3,4)              115.8898         estimate D2E/DX2                !
 ! A8    A(2,3,20)             114.0509         estimate D2E/DX2                !
 ! A9    A(2,3,31)             107.8436         estimate D2E/DX2                !
 ! A10   A(4,3,20)             106.369          estimate D2E/DX2                !
 ! A11   A(4,3,31)             104.5263         estimate D2E/DX2                !
 ! A12   A(20,3,31)            107.4727         estimate D2E/DX2                !
 ! A13   A(3,4,5)              118.743          estimate D2E/DX2                !
 ! A14   A(3,4,7)              104.5178         estimate D2E/DX2                !
 ! A15   A(3,4,24)             108.31           estimate D2E/DX2                !
 ! A16   A(5,4,7)              112.7727         estimate D2E/DX2                !
 ! A17   A(5,4,24)             105.4804         estimate D2E/DX2                !
 ! A18   A(7,4,24)             106.3933         estimate D2E/DX2                !
 ! A19   A(4,5,6)              111.4825         estimate D2E/DX2                !
 ! A20   A(4,5,10)             116.5158         estimate D2E/DX2                !
 ! A21   A(4,5,22)             101.7708         estimate D2E/DX2                !
 ! A22   A(6,5,10)             108.0549         estimate D2E/DX2                !
 ! A23   A(6,5,22)             110.2251         estimate D2E/DX2                !
 ! A24   A(10,5,22)            108.5633         estimate D2E/DX2                !
 ! A25   A(1,6,5)              113.6649         estimate D2E/DX2                !
 ! A26   A(1,6,34)             108.8743         estimate D2E/DX2                !
 ! A27   A(1,6,35)             110.9836         estimate D2E/DX2                !
 ! A28   A(5,6,34)             109.5315         estimate D2E/DX2                !
 ! A29   A(5,6,35)             107.4122         estimate D2E/DX2                !
 ! A30   A(34,6,35)            106.095          estimate D2E/DX2                !
 ! A31   A(4,7,8)              113.3816         estimate D2E/DX2                !
 ! A32   A(4,7,17)             108.0295         estimate D2E/DX2                !
 ! A33   A(4,7,21)             112.1592         estimate D2E/DX2                !
 ! A34   A(8,7,17)              99.2877         estimate D2E/DX2                !
 ! A35   A(8,7,21)             107.5784         estimate D2E/DX2                !
 ! A36   A(17,7,21)            115.8661         estimate D2E/DX2                !
 ! A37   A(7,8,9)              125.1008         estimate D2E/DX2                !
 ! A38   A(7,8,19)             110.335          estimate D2E/DX2                !
 ! A39   A(9,8,19)             124.4853         estimate D2E/DX2                !
 ! A40   A(8,9,10)             118.3827         estimate D2E/DX2                !
 ! A41   A(8,9,11)             119.875          estimate D2E/DX2                !
 ! A42   A(10,9,11)            121.7373         estimate D2E/DX2                !
 ! A43   A(5,10,9)             121.1069         estimate D2E/DX2                !
 ! A44   A(5,10,16)            116.9872         estimate D2E/DX2                !
 ! A45   A(9,10,16)            121.9058         estimate D2E/DX2                !
 ! A46   A(9,11,12)            119.014          estimate D2E/DX2                !
 ! A47   A(9,11,13)            119.0619         estimate D2E/DX2                !
 ! A48   A(12,11,13)           121.9105         estimate D2E/DX2                !
 ! A49   A(11,13,14)           111.9947         estimate D2E/DX2                !
 ! A50   A(11,13,15)           111.1341         estimate D2E/DX2                !
 ! A51   A(11,13,36)           105.0828         estimate D2E/DX2                !
 ! A52   A(14,13,15)           113.1735         estimate D2E/DX2                !
 ! A53   A(14,13,36)           108.1467         estimate D2E/DX2                !
 ! A54   A(15,13,36)           106.7945         estimate D2E/DX2                !
 ! A55   A(13,14,37)           108.234          estimate D2E/DX2                !
 ! A56   A(13,14,38)           107.481          estimate D2E/DX2                !
 ! A57   A(13,14,62)           116.1025         estimate D2E/DX2                !
 ! A58   A(37,14,38)           106.6182         estimate D2E/DX2                !
 ! A59   A(37,14,62)           108.8905         estimate D2E/DX2                !
 ! A60   A(38,14,62)           109.1114         estimate D2E/DX2                !
 ! A61   A(13,15,39)           111.7254         estimate D2E/DX2                !
 ! A62   A(13,15,40)           109.8578         estimate D2E/DX2                !
 ! A63   A(13,15,41)           111.7847         estimate D2E/DX2                !
 ! A64   A(39,15,40)           107.6159         estimate D2E/DX2                !
 ! A65   A(39,15,41)           107.9781         estimate D2E/DX2                !
 ! A66   A(40,15,41)           107.7031         estimate D2E/DX2                !
 ! A67   A(7,17,18)            102.6395         estimate D2E/DX2                !
 ! A68   A(7,17,20)            101.582          estimate D2E/DX2                !
 ! A69   A(7,17,30)            111.7601         estimate D2E/DX2                !
 ! A70   A(18,17,20)           116.2748         estimate D2E/DX2                !
 ! A71   A(18,17,30)           111.8101         estimate D2E/DX2                !
 ! A72   A(20,17,30)           111.8801         estimate D2E/DX2                !
 ! A73   A(17,18,19)           102.1606         estimate D2E/DX2                !
 ! A74   A(17,18,28)           113.0801         estimate D2E/DX2                !
 ! A75   A(17,18,29)           116.2103         estimate D2E/DX2                !
 ! A76   A(19,18,28)           107.7387         estimate D2E/DX2                !
 ! A77   A(19,18,29)           105.9288         estimate D2E/DX2                !
 ! A78   A(28,18,29)           110.752          estimate D2E/DX2                !
 ! A79   A(8,19,18)            111.0648         estimate D2E/DX2                !
 ! A80   A(3,20,17)            105.9781         estimate D2E/DX2                !
 ! A81   A(3,20,42)            109.1625         estimate D2E/DX2                !
 ! A82   A(3,20,43)            112.1288         estimate D2E/DX2                !
 ! A83   A(17,20,42)           109.8452         estimate D2E/DX2                !
 ! A84   A(17,20,43)           112.7151         estimate D2E/DX2                !
 ! A85   A(42,20,43)           106.9925         estimate D2E/DX2                !
 ! A86   A(7,21,44)            104.3497         estimate D2E/DX2                !
 ! A87   A(5,22,23)            102.7712         estimate D2E/DX2                !
 ! A88   A(5,22,45)            111.7303         estimate D2E/DX2                !
 ! A89   A(5,22,46)            109.8993         estimate D2E/DX2                !
 ! A90   A(23,22,45)           113.1338         estimate D2E/DX2                !
 ! A91   A(23,22,46)           110.5207         estimate D2E/DX2                !
 ! A92   A(45,22,46)           108.6849         estimate D2E/DX2                !
 ! A93   A(22,23,24)           104.6202         estimate D2E/DX2                !
 ! A94   A(22,23,25)           119.104          estimate D2E/DX2                !
 ! A95   A(22,23,47)           109.8866         estimate D2E/DX2                !
 ! A96   A(24,23,25)           108.3897         estimate D2E/DX2                !
 ! A97   A(24,23,47)           106.7011         estimate D2E/DX2                !
 ! A98   A(25,23,47)           107.4963         estimate D2E/DX2                !
 ! A99   A(4,24,23)            111.3068         estimate D2E/DX2                !
 ! A100  A(23,25,26)           114.7296         estimate D2E/DX2                !
 ! A101  A(23,25,27)           122.9289         estimate D2E/DX2                !
 ! A102  A(26,25,27)           122.3129         estimate D2E/DX2                !
 ! A103  A(25,26,48)           110.8119         estimate D2E/DX2                !
 ! A104  A(25,26,49)           111.0019         estimate D2E/DX2                !
 ! A105  A(25,26,50)           111.4779         estimate D2E/DX2                !
 ! A106  A(48,26,49)           106.5465         estimate D2E/DX2                !
 ! A107  A(48,26,50)           108.1517         estimate D2E/DX2                !
 ! A108  A(49,26,50)           108.6743         estimate D2E/DX2                !
 ! A109  A(25,27,51)           120.9704         estimate D2E/DX2                !
 ! A110  A(25,27,52)           122.8637         estimate D2E/DX2                !
 ! A111  A(51,27,52)           116.1624         estimate D2E/DX2                !
 ! A112  A(18,28,53)           109.7505         estimate D2E/DX2                !
 ! A113  A(18,28,54)           109.8942         estimate D2E/DX2                !
 ! A114  A(18,28,55)           110.9544         estimate D2E/DX2                !
 ! A115  A(53,28,54)           108.2858         estimate D2E/DX2                !
 ! A116  A(53,28,55)           109.0602         estimate D2E/DX2                !
 ! A117  A(54,28,55)           108.843          estimate D2E/DX2                !
 ! A118  A(18,29,56)           109.8653         estimate D2E/DX2                !
 ! A119  A(18,29,57)           112.204          estimate D2E/DX2                !
 ! A120  A(18,29,58)           109.9197         estimate D2E/DX2                !
 ! A121  A(56,29,57)           108.5212         estimate D2E/DX2                !
 ! A122  A(56,29,58)           108.1765         estimate D2E/DX2                !
 ! A123  A(57,29,58)           108.0486         estimate D2E/DX2                !
 ! A124  A(2,32,59)            111.0957         estimate D2E/DX2                !
 ! A125  A(2,32,60)            111.0496         estimate D2E/DX2                !
 ! A126  A(2,32,61)            112.2409         estimate D2E/DX2                !
 ! A127  A(59,32,60)           107.8884         estimate D2E/DX2                !
 ! A128  A(59,32,61)           107.7883         estimate D2E/DX2                !
 ! A129  A(60,32,61)           106.5503         estimate D2E/DX2                !
 ! A130  A(14,62,63)           110.2736         estimate D2E/DX2                !
 ! A131  A(14,62,64)           110.9168         estimate D2E/DX2                !
 ! A132  A(14,62,65)           111.9701         estimate D2E/DX2                !
 ! A133  A(63,62,64)           107.8658         estimate D2E/DX2                !
 ! A134  A(63,62,65)           107.2129         estimate D2E/DX2                !
 ! A135  A(64,62,65)           108.4394         estimate D2E/DX2                !
 ! D1    D(6,1,2,3)              0.6175         estimate D2E/DX2                !
 ! D2    D(6,1,2,32)          -175.6951         estimate D2E/DX2                !
 ! D3    D(33,1,2,3)           177.4425         estimate D2E/DX2                !
 ! D4    D(33,1,2,32)            1.1299         estimate D2E/DX2                !
 ! D5    D(2,1,6,5)            -30.8046         estimate D2E/DX2                !
 ! D6    D(2,1,6,34)            91.5791         estimate D2E/DX2                !
 ! D7    D(2,1,6,35)          -152.003          estimate D2E/DX2                !
 ! D8    D(33,1,6,5)           152.3055         estimate D2E/DX2                !
 ! D9    D(33,1,6,34)          -85.3109         estimate D2E/DX2                !
 ! D10   D(33,1,6,35)           31.107          estimate D2E/DX2                !
 ! D11   D(1,2,3,4)             13.1027         estimate D2E/DX2                !
 ! D12   D(1,2,3,20)           137.1347         estimate D2E/DX2                !
 ! D13   D(1,2,3,31)          -103.5855         estimate D2E/DX2                !
 ! D14   D(32,2,3,4)          -170.4091         estimate D2E/DX2                !
 ! D15   D(32,2,3,20)          -46.3771         estimate D2E/DX2                !
 ! D16   D(32,2,3,31)           72.9027         estimate D2E/DX2                !
 ! D17   D(1,2,32,59)            0.4331         estimate D2E/DX2                !
 ! D18   D(1,2,32,60)          120.5153         estimate D2E/DX2                !
 ! D19   D(1,2,32,61)         -120.3321         estimate D2E/DX2                !
 ! D20   D(3,2,32,59)         -176.0344         estimate D2E/DX2                !
 ! D21   D(3,2,32,60)          -55.9523         estimate D2E/DX2                !
 ! D22   D(3,2,32,61)           63.2003         estimate D2E/DX2                !
 ! D23   D(2,3,4,5)              4.1301         estimate D2E/DX2                !
 ! D24   D(2,3,4,7)            130.8609         estimate D2E/DX2                !
 ! D25   D(2,3,4,24)          -116.0118         estimate D2E/DX2                !
 ! D26   D(20,3,4,5)          -123.8011         estimate D2E/DX2                !
 ! D27   D(20,3,4,7)             2.9297         estimate D2E/DX2                !
 ! D28   D(20,3,4,24)          116.057          estimate D2E/DX2                !
 ! D29   D(31,3,4,5)           122.6596         estimate D2E/DX2                !
 ! D30   D(31,3,4,7)          -110.6095         estimate D2E/DX2                !
 ! D31   D(31,3,4,24)            2.5177         estimate D2E/DX2                !
 ! D32   D(2,3,20,17)         -153.6248         estimate D2E/DX2                !
 ! D33   D(2,3,20,42)          -35.3737         estimate D2E/DX2                !
 ! D34   D(2,3,20,43)           83.0053         estimate D2E/DX2                !
 ! D35   D(4,3,20,17)          -24.6158         estimate D2E/DX2                !
 ! D36   D(4,3,20,42)           93.6353         estimate D2E/DX2                !
 ! D37   D(4,3,20,43)         -147.9857         estimate D2E/DX2                !
 ! D38   D(31,3,20,17)          86.8856         estimate D2E/DX2                !
 ! D39   D(31,3,20,42)        -154.8633         estimate D2E/DX2                !
 ! D40   D(31,3,20,43)         -36.4843         estimate D2E/DX2                !
 ! D41   D(3,4,5,6)            -31.8624         estimate D2E/DX2                !
 ! D42   D(3,4,5,10)            92.7885         estimate D2E/DX2                !
 ! D43   D(3,4,5,22)          -149.3469         estimate D2E/DX2                !
 ! D44   D(7,4,5,6)           -154.5682         estimate D2E/DX2                !
 ! D45   D(7,4,5,10)           -29.9172         estimate D2E/DX2                !
 ! D46   D(7,4,5,22)            87.9474         estimate D2E/DX2                !
 ! D47   D(24,4,5,6)            89.7179         estimate D2E/DX2                !
 ! D48   D(24,4,5,10)         -145.6311         estimate D2E/DX2                !
 ! D49   D(24,4,5,22)          -27.7665         estimate D2E/DX2                !
 ! D50   D(3,4,7,8)            -89.0859         estimate D2E/DX2                !
 ! D51   D(3,4,7,17)            19.9185         estimate D2E/DX2                !
 ! D52   D(3,4,7,21)           148.8173         estimate D2E/DX2                !
 ! D53   D(5,4,7,8)             41.2634         estimate D2E/DX2                !
 ! D54   D(5,4,7,17)           150.2678         estimate D2E/DX2                !
 ! D55   D(5,4,7,21)           -80.8334         estimate D2E/DX2                !
 ! D56   D(24,4,7,8)           156.4294         estimate D2E/DX2                !
 ! D57   D(24,4,7,17)          -94.5663         estimate D2E/DX2                !
 ! D58   D(24,4,7,21)           34.3325         estimate D2E/DX2                !
 ! D59   D(3,4,24,23)          135.9406         estimate D2E/DX2                !
 ! D60   D(5,4,24,23)            7.8255         estimate D2E/DX2                !
 ! D61   D(7,4,24,23)         -112.1841         estimate D2E/DX2                !
 ! D62   D(4,5,6,1)             43.9455         estimate D2E/DX2                !
 ! D63   D(4,5,6,34)           -78.0746         estimate D2E/DX2                !
 ! D64   D(4,5,6,35)           167.1201         estimate D2E/DX2                !
 ! D65   D(10,5,6,1)           -85.3199         estimate D2E/DX2                !
 ! D66   D(10,5,6,34)          152.6599         estimate D2E/DX2                !
 ! D67   D(10,5,6,35)           37.8547         estimate D2E/DX2                !
 ! D68   D(22,5,6,1)           156.1942         estimate D2E/DX2                !
 ! D69   D(22,5,6,34)           34.1741         estimate D2E/DX2                !
 ! D70   D(22,5,6,35)          -80.6311         estimate D2E/DX2                !
 ! D71   D(4,5,10,9)             5.8676         estimate D2E/DX2                !
 ! D72   D(4,5,10,16)         -174.056          estimate D2E/DX2                !
 ! D73   D(6,5,10,9)           132.245          estimate D2E/DX2                !
 ! D74   D(6,5,10,16)          -47.6785         estimate D2E/DX2                !
 ! D75   D(22,5,10,9)         -108.2143         estimate D2E/DX2                !
 ! D76   D(22,5,10,16)          71.8622         estimate D2E/DX2                !
 ! D77   D(4,5,22,23)           36.8471         estimate D2E/DX2                !
 ! D78   D(4,5,22,45)          158.4482         estimate D2E/DX2                !
 ! D79   D(4,5,22,46)          -80.8186         estimate D2E/DX2                !
 ! D80   D(6,5,22,23)          -81.5406         estimate D2E/DX2                !
 ! D81   D(6,5,22,45)           40.0605         estimate D2E/DX2                !
 ! D82   D(6,5,22,46)          160.7937         estimate D2E/DX2                !
 ! D83   D(10,5,22,23)         160.2855         estimate D2E/DX2                !
 ! D84   D(10,5,22,45)         -78.1133         estimate D2E/DX2                !
 ! D85   D(10,5,22,46)          42.6199         estimate D2E/DX2                !
 ! D86   D(4,7,8,9)            -31.7272         estimate D2E/DX2                !
 ! D87   D(4,7,8,19)           145.1539         estimate D2E/DX2                !
 ! D88   D(17,7,8,9)          -146.0819         estimate D2E/DX2                !
 ! D89   D(17,7,8,19)           30.7993         estimate D2E/DX2                !
 ! D90   D(21,7,8,9)            92.8854         estimate D2E/DX2                !
 ! D91   D(21,7,8,19)          -90.2334         estimate D2E/DX2                !
 ! D92   D(4,7,17,18)         -155.2638         estimate D2E/DX2                !
 ! D93   D(4,7,17,20)          -34.6626         estimate D2E/DX2                !
 ! D94   D(4,7,17,30)           84.7703         estimate D2E/DX2                !
 ! D95   D(8,7,17,18)          -36.8315         estimate D2E/DX2                !
 ! D96   D(8,7,17,20)           83.7696         estimate D2E/DX2                !
 ! D97   D(8,7,17,30)         -156.7975         estimate D2E/DX2                !
 ! D98   D(21,7,17,18)          77.9641         estimate D2E/DX2                !
 ! D99   D(21,7,17,20)        -161.4347         estimate D2E/DX2                !
 ! D100  D(21,7,17,30)         -42.0018         estimate D2E/DX2                !
 ! D101  D(4,7,21,44)          -36.1383         estimate D2E/DX2                !
 ! D102  D(8,7,21,44)         -161.4844         estimate D2E/DX2                !
 ! D103  D(17,7,21,44)          88.5322         estimate D2E/DX2                !
 ! D104  D(7,8,9,10)             6.4753         estimate D2E/DX2                !
 ! D105  D(7,8,9,11)          -174.324          estimate D2E/DX2                !
 ! D106  D(19,8,9,10)         -169.9762         estimate D2E/DX2                !
 ! D107  D(19,8,9,11)            9.2245         estimate D2E/DX2                !
 ! D108  D(7,8,19,18)          -11.3566         estimate D2E/DX2                !
 ! D109  D(9,8,19,18)          165.5477         estimate D2E/DX2                !
 ! D110  D(8,9,10,5)             7.1477         estimate D2E/DX2                !
 ! D111  D(8,9,10,16)         -172.9325         estimate D2E/DX2                !
 ! D112  D(11,9,10,5)         -172.0373         estimate D2E/DX2                !
 ! D113  D(11,9,10,16)           7.8824         estimate D2E/DX2                !
 ! D114  D(8,9,11,12)           39.4808         estimate D2E/DX2                !
 ! D115  D(8,9,11,13)         -139.201          estimate D2E/DX2                !
 ! D116  D(10,9,11,12)        -141.3461         estimate D2E/DX2                !
 ! D117  D(10,9,11,13)          39.9721         estimate D2E/DX2                !
 ! D118  D(9,11,13,14)        -179.252          estimate D2E/DX2                !
 ! D119  D(9,11,13,15)          53.0757         estimate D2E/DX2                !
 ! D120  D(9,11,13,36)         -62.0752         estimate D2E/DX2                !
 ! D121  D(12,11,13,14)          2.106          estimate D2E/DX2                !
 ! D122  D(12,11,13,15)       -125.5663         estimate D2E/DX2                !
 ! D123  D(12,11,13,36)        119.2828         estimate D2E/DX2                !
 ! D124  D(11,13,14,37)         50.1021         estimate D2E/DX2                !
 ! D125  D(11,13,14,38)        164.9016         estimate D2E/DX2                !
 ! D126  D(11,13,14,62)        -72.6497         estimate D2E/DX2                !
 ! D127  D(15,13,14,37)        176.6773         estimate D2E/DX2                !
 ! D128  D(15,13,14,38)        -68.5232         estimate D2E/DX2                !
 ! D129  D(15,13,14,62)         53.9255         estimate D2E/DX2                !
 ! D130  D(36,13,14,37)        -65.2205         estimate D2E/DX2                !
 ! D131  D(36,13,14,38)         49.579          estimate D2E/DX2                !
 ! D132  D(36,13,14,62)        172.0277         estimate D2E/DX2                !
 ! D133  D(11,13,15,39)        -61.7575         estimate D2E/DX2                !
 ! D134  D(11,13,15,40)        178.8836         estimate D2E/DX2                !
 ! D135  D(11,13,15,41)         59.3775         estimate D2E/DX2                !
 ! D136  D(14,13,15,39)        171.2126         estimate D2E/DX2                !
 ! D137  D(14,13,15,40)         51.8537         estimate D2E/DX2                !
 ! D138  D(14,13,15,41)        -67.6523         estimate D2E/DX2                !
 ! D139  D(36,13,15,39)         52.3265         estimate D2E/DX2                !
 ! D140  D(36,13,15,40)        -67.0324         estimate D2E/DX2                !
 ! D141  D(36,13,15,41)        173.4615         estimate D2E/DX2                !
 ! D142  D(13,14,62,63)        178.4526         estimate D2E/DX2                !
 ! D143  D(13,14,62,64)         59.0264         estimate D2E/DX2                !
 ! D144  D(13,14,62,65)        -62.2603         estimate D2E/DX2                !
 ! D145  D(37,14,62,63)         56.0458         estimate D2E/DX2                !
 ! D146  D(37,14,62,64)        -63.3804         estimate D2E/DX2                !
 ! D147  D(37,14,62,65)        175.3329         estimate D2E/DX2                !
 ! D148  D(38,14,62,63)        -59.9609         estimate D2E/DX2                !
 ! D149  D(38,14,62,64)       -179.3871         estimate D2E/DX2                !
 ! D150  D(38,14,62,65)         59.3263         estimate D2E/DX2                !
 ! D151  D(7,17,18,19)          31.5973         estimate D2E/DX2                !
 ! D152  D(7,17,18,28)         -83.909          estimate D2E/DX2                !
 ! D153  D(7,17,18,29)         146.3687         estimate D2E/DX2                !
 ! D154  D(20,17,18,19)        -78.2901         estimate D2E/DX2                !
 ! D155  D(20,17,18,28)        166.2035         estimate D2E/DX2                !
 ! D156  D(20,17,18,29)         36.4812         estimate D2E/DX2                !
 ! D157  D(30,17,18,19)        151.5286         estimate D2E/DX2                !
 ! D158  D(30,17,18,28)         36.0222         estimate D2E/DX2                !
 ! D159  D(30,17,18,29)        -93.7001         estimate D2E/DX2                !
 ! D160  D(7,17,20,3)           35.8603         estimate D2E/DX2                !
 ! D161  D(7,17,20,42)         -81.9365         estimate D2E/DX2                !
 ! D162  D(7,17,20,43)         158.8603         estimate D2E/DX2                !
 ! D163  D(18,17,20,3)         146.3646         estimate D2E/DX2                !
 ! D164  D(18,17,20,42)         28.5679         estimate D2E/DX2                !
 ! D165  D(18,17,20,43)        -90.6354         estimate D2E/DX2                !
 ! D166  D(30,17,20,3)         -83.4874         estimate D2E/DX2                !
 ! D167  D(30,17,20,42)        158.7159         estimate D2E/DX2                !
 ! D168  D(30,17,20,43)         39.5127         estimate D2E/DX2                !
 ! D169  D(17,18,19,8)         -13.3501         estimate D2E/DX2                !
 ! D170  D(28,18,19,8)         105.9881         estimate D2E/DX2                !
 ! D171  D(29,18,19,8)        -135.4466         estimate D2E/DX2                !
 ! D172  D(17,18,28,53)        168.8487         estimate D2E/DX2                !
 ! D173  D(17,18,28,54)        -72.1744         estimate D2E/DX2                !
 ! D174  D(17,18,28,55)         48.2486         estimate D2E/DX2                !
 ! D175  D(19,18,28,53)         56.7179         estimate D2E/DX2                !
 ! D176  D(19,18,28,54)        175.6949         estimate D2E/DX2                !
 ! D177  D(19,18,28,55)        -63.8821         estimate D2E/DX2                !
 ! D178  D(29,18,28,53)        -58.7077         estimate D2E/DX2                !
 ! D179  D(29,18,28,54)         60.2693         estimate D2E/DX2                !
 ! D180  D(29,18,28,55)       -179.3077         estimate D2E/DX2                !
 ! D181  D(17,18,29,56)         65.398          estimate D2E/DX2                !
 ! D182  D(17,18,29,57)        -55.4181         estimate D2E/DX2                !
 ! D183  D(17,18,29,58)       -175.6732         estimate D2E/DX2                !
 ! D184  D(19,18,29,56)        178.0211         estimate D2E/DX2                !
 ! D185  D(19,18,29,57)         57.205          estimate D2E/DX2                !
 ! D186  D(19,18,29,58)        -63.0501         estimate D2E/DX2                !
 ! D187  D(28,18,29,56)        -65.4299         estimate D2E/DX2                !
 ! D188  D(28,18,29,57)        173.754          estimate D2E/DX2                !
 ! D189  D(28,18,29,58)         53.499          estimate D2E/DX2                !
 ! D190  D(5,22,23,24)         -32.9308         estimate D2E/DX2                !
 ! D191  D(5,22,23,25)        -154.1534         estimate D2E/DX2                !
 ! D192  D(5,22,23,47)          81.286          estimate D2E/DX2                !
 ! D193  D(45,22,23,24)       -153.5722         estimate D2E/DX2                !
 ! D194  D(45,22,23,25)         85.2052         estimate D2E/DX2                !
 ! D195  D(45,22,23,47)        -39.3555         estimate D2E/DX2                !
 ! D196  D(46,22,23,24)         84.2944         estimate D2E/DX2                !
 ! D197  D(46,22,23,25)        -36.9282         estimate D2E/DX2                !
 ! D198  D(46,22,23,47)       -161.4889         estimate D2E/DX2                !
 ! D199  D(22,23,24,4)          16.0157         estimate D2E/DX2                !
 ! D200  D(25,23,24,4)         144.0729         estimate D2E/DX2                !
 ! D201  D(47,23,24,4)        -100.4263         estimate D2E/DX2                !
 ! D202  D(22,23,25,26)        176.8085         estimate D2E/DX2                !
 ! D203  D(22,23,25,27)         -5.0958         estimate D2E/DX2                !
 ! D204  D(24,23,25,26)         57.5004         estimate D2E/DX2                !
 ! D205  D(24,23,25,27)       -124.4038         estimate D2E/DX2                !
 ! D206  D(47,23,25,26)        -57.4816         estimate D2E/DX2                !
 ! D207  D(47,23,25,27)        120.6142         estimate D2E/DX2                !
 ! D208  D(23,25,26,48)         59.6487         estimate D2E/DX2                !
 ! D209  D(23,25,26,49)        -58.5335         estimate D2E/DX2                !
 ! D210  D(23,25,26,50)       -179.8401         estimate D2E/DX2                !
 ! D211  D(27,25,26,48)       -118.4601         estimate D2E/DX2                !
 ! D212  D(27,25,26,49)        123.3577         estimate D2E/DX2                !
 ! D213  D(27,25,26,50)          2.0511         estimate D2E/DX2                !
 ! D214  D(23,25,27,51)       -178.2898         estimate D2E/DX2                !
 ! D215  D(23,25,27,52)          0.999          estimate D2E/DX2                !
 ! D216  D(26,25,27,51)         -0.3364         estimate D2E/DX2                !
 ! D217  D(26,25,27,52)        178.9524         estimate D2E/DX2                !
 --------------------------------------------------------------------------------
 Trust Radius=3.00D-01 FncErr=1.00D-07 GrdErr=1.00D-06
 Number of steps in this run=    390 maximum allowed number of steps=    390.
 GradGradGradGradGradGradGradGradGradGradGradGradGradGradGradGradGradGrad

 Stoichiometry    C26H34O5
 Framework group  C1[X(C26H34O5)]
 Deg. of freedom   189
 Full point group                 C1      NOp   1
 Largest Abelian subgroup         C1      NOp   1
 Largest concise Abelian subgroup C1      NOp   1
                         Standard orientation:                         
 ---------------------------------------------------------------------
 Center     Atomic      Atomic             Coordinates (Angstroms)
 Number     Number       Type             X           Y           Z
 ---------------------------------------------------------------------
      1          6           0        0.580300   -2.087714    2.464582
      2          6           0        0.607609   -0.819491    2.892795
      3          6           0        1.177718    0.288822    2.031702
      4          6           0        1.426462   -0.071691    0.532880
      5          6           0        0.992375   -1.468257    0.020379
      6          6           0        1.107350   -2.540830    1.131167
      7          6           0        0.771280    1.089183   -0.260165
      8          6           0       -0.691446    0.849221   -0.579969
      9          6           0       -1.253634   -0.370459   -0.807208
     10          6           0       -0.429337   -1.568555   -0.601032
     11          6           0       -2.699290   -0.464469   -1.242975
     12          8           0       -3.131294    0.351723   -2.040862
     13          6           0       -3.585739   -1.561593   -0.647425
     14          6           0       -5.018331   -1.519244   -1.216876
     15          6           0       -3.544290   -1.534291    0.895124
     16          8           0       -0.826218   -2.690448   -0.907099
     17          6           0        0.623526    2.294643    0.692207
     18          6           0       -0.546980    3.083756    0.060246
     19          8           0       -1.368678    1.997597   -0.541773
     20          6           0        0.329064    1.594756    2.034028
     21          8           0        1.439181    1.345218   -1.480961
     22          6           0        2.038684   -1.735781   -1.094106
     23          6           0        3.312421   -1.126942   -0.514234
     24          8           0        2.850967    0.009511    0.275212
     25          6           0        4.395017   -0.644970   -1.458500
     26          6           0        5.577534    0.007945   -0.783255
     27          6           0        4.333365   -0.816455   -2.782664
     28          6           0       -0.102185    4.013393   -1.070912
     29          6           0       -1.468355    3.816576    1.031870
     30          1           0        1.539571    2.891676    0.736064
     31          1           0        2.173418    0.541491    2.423471
     32          6           0        0.150798   -0.438309    4.279534
     33          1           0        0.200671   -2.861716    3.130478
     34          1           0        2.160097   -2.838857    1.247179
     35          1           0        0.576838   -3.431280    0.782436
     36          1           0       -3.121526   -2.504779   -0.960279
     37          1           0       -4.951816   -1.481767   -2.309945
     38          1           0       -5.502368   -2.472762   -0.963999
     39          1           0       -2.535766   -1.719870    1.276502
     40          1           0       -4.200395   -2.313961    1.299094
     41          1           0       -3.885064   -0.572334    1.294123
     42          1           0       -0.733192    1.333209    2.091813
     43          1           0        0.549791    2.228003    2.898039
     44          1           0        2.383329    1.192630   -1.277301
     45          1           0        2.133495   -2.802620   -1.312554
     46          1           0        1.747784   -1.215211   -2.010278
     47          1           0        3.778263   -1.833587    0.190504
     48          1           0        6.063849   -0.689563   -0.087368
     49          1           0        5.262070    0.872908   -0.188659
     50          1           0        6.323477    0.337417   -1.512396
     51          1           0        5.141589   -0.482133   -3.428289
     52          1           0        3.495743   -1.299147   -3.275550
     53          1           0       -0.979233    4.390105   -1.606550
     54          1           0        0.442435    4.870140   -0.657276
     55          1           0        0.546981    3.489351   -1.774239
     56          1           0       -0.914698    4.613370    1.540851
     57          1           0       -1.887496    3.147786    1.787565
     58          1           0       -2.299073    4.273538    0.485240
     59          1           0       -0.177434   -1.317867    4.841761
     60          1           0        0.963030    0.040363    4.845240
     61          1           0       -0.681013    0.277239    4.260816
     62          6           0       -5.902996   -0.363092   -0.733199
     63          1           0       -6.886192   -0.409320   -1.216123
     64          1           0       -5.453087    0.602384   -0.980061
     65          1           0       -6.071269   -0.400568    0.349580
 ---------------------------------------------------------------------
 Rotational constants (GHZ):      0.2113201      0.1236687      0.1147841
 Standard basis: 6-311+G(d) (5D, 7F)
 There are   784 symmetry adapted basis functions of A   symmetry.
 Integral buffers will be    131072 words long.
 Raffenetti 2 integral format.
 Two-electron integral symmetry is turned on.
   784 basis functions,  1286 primitive gaussians,   815 cartesian basis functions
   115 alpha electrons      115 beta electrons
       nuclear repulsion energy      3519.5217180724 Hartrees.
 NAtoms=   65 NActive=   65 NUniq=   65 SFac= 1.00D+00 NAtFMM=   50 NAOKFM=T Big=T
 One-electron integrals computed using PRISM.
 NBasis=   784 RedAO= T  NBF=   784
 NBsUse=   777 1.00D-06 NBFU=   777
 Harris functional with IExCor=  402 diagonalized for initial guess.
 ExpMin= 4.38D-02 ExpMax= 8.59D+03 ExpMxC= 1.30D+03 IAcc=2 IRadAn=         0 AccDes= 0.00D+00
 HarFok:  IExCor=  402 AccDes= 0.00D+00 IRadAn=         0 IDoV= 1
 ScaDFX=  1.000000  1.000000  1.000000  1.000000
 FoFCou: FMM=F IPFlag=           0 FMFlag=      100000 FMFlg1=        2001
         NFxFlg=           0 DoJE=T BraDBF=F KetDBF=T FulRan=T
         Omega=  0.000000  0.000000  1.000000  0.000000  0.000000 ICntrl=     500 IOpCl=  0
         NMat0=    1 NMatS0=    1 NMatT0=    0 NMatD0=    1 NMtDS0=    0 NMtDT0=    0
         I1Cent=           4 NGrid=           0.
 Petite list used in FoFCou.
 Initial guess orbital symmetries:
       Occupied  (A) (A) (A) (A) (A) (A) (A) (A) (A) (A) (A) (A)
                 (A) (A) (A) (A) (A) (A) (A) (A) (A) (A) (A) (A)
                 (A) (A) (A) (A) (A) (A) (A) (A) (A) (A) (A) (A)
                 (A) (A) (A) (A) (A) (A) (A) (A) (A) (A) (A) (A)
                 (A) (A) (A) (A) (A) (A) (A) (A) (A) (A) (A) (A)
                 (A) (A) (A) (A) (A) (A) (A) (A) (A) (A) (A) (A)
                 (A) (A) (A) (A) (A) (A) (A) (A) (A) (A) (A) (A)
                 (A) (A) (A) (A) (A) (A) (A) (A) (A) (A) (A) (A)
                 (A) (A) (A) (A) (A) (A) (A) (A) (A) (A) (A) (A)
                 (A) (A) (A) (A) (A) (A) (A)
       Virtual   (A) (A) (A) (A) (A) (A) (A) (A) (A) (A) (A) (A)
                 (A) (A) (A) (A) (A) (A) (A) (A) (A) (A) (A) (A)
                 (A) (A) (A) (A) (A) (A) (A) (A) (A) (A) (A) (A)
                 (A) (A) (A) (A) (A) (A) (A) (A) (A) (A) (A) (A)
                 (A) (A) (A) (A) (A) (A) (A) (A) (A) (A) (A) (A)
                 (A) (A) (A) (A) (A) (A) (A) (A) (A) (A) (A) (A)
                 (A) (A) (A) (A) (A) (A) (A) (A) (A) (A) (A) (A)
                 (A) (A) (A) (A) (A) (A) (A) (A) (A) (A) (A) (A)
                 (A) (A) (A) (A) (A) (A) (A) (A) (A) (A) (A) (A)
                 (A) (A) (A) (A) (A) (A) (A) (A) (A) (A) (A) (A)
                 (A) (A) (A) (A) (A) (A) (A) (A) (A) (A) (A) (A)
                 (A) (A) (A) (A) (A) (A) (A) (A) (A) (A) (A) (A)
                 (A) (A) (A) (A) (A) (A) (A) (A) (A) (A) (A) (A)
                 (A) (A) (A) (A) (A) (A) (A) (A) (A) (A) (A) (A)
                 (A) (A) (A) (A) (A) (A) (A) (A) (A) (A) (A) (A)
                 (A) (A) (A) (A) (A) (A) (A) (A) (A) (A) (A) (A)
                 (A) (A) (A) (A) (A) (A) (A) (A) (A) (A) (A) (A)
                 (A) (A) (A) (A) (A) (A) (A) (A) (A) (A) (A) (A)
                 (A) (A) (A) (A) (A) (A) (A) (A) (A) (A) (A) (A)
                 (A) (A) (A) (A) (A) (A) (A) (A) (A) (A) (A) (A)
                 (A) (A) (A) (A) (A) (A) (A) (A) (A) (A) (A) (A)
                 (A) (A) (A) (A) (A) (A) (A) (A) (A) (A) (A) (A)
                 (A) (A) (A) (A) (A) (A) (A) (A) (A) (A) (A) (A)
                 (A) (A) (A) (A) (A) (A) (A) (A) (A) (A) (A) (A)
                 (A) (A) (A) (A) (A) (A) (A) (A) (A) (A) (A) (A)
                 (A) (A) (A) (A) (A) (A) (A) (A) (A) (A) (A) (A)
                 (A) (A) (A) (A) (A) (A) (A) (A) (A) (A) (A) (A)
                 (A) (A) (A) (A) (A) (A) (A) (A) (A) (A) (A) (A)
                 (A) (A) (A) (A) (A) (A) (A) (A) (A) (A) (A) (A)
                 (A) (A) (A) (A) (A) (A) (A) (A) (A) (A) (A) (A)
                 (A) (A) (A) (A) (A) (A) (A) (A) (A) (A) (A) (A)
                 (A) (A) (A) (A) (A) (A) (A) (A) (A) (A) (A) (A)
                 (A) (A) (A) (A) (A) (A) (A) (A) (A) (A) (A) (A)
                 (A) (A) (A) (A) (A) (A) (A) (A) (A) (A) (A) (A)
                 (A) (A) (A) (A) (A) (A) (A) (A) (A) (A) (A) (A)
                 (A) (A) (A) (A) (A) (A) (A) (A) (A) (A) (A) (A)
                 (A) (A) (A) (A) (A) (A) (A) (A) (A) (A) (A) (A)
                 (A) (A) (A) (A) (A) (A) (A) (A) (A) (A) (A) (A)
                 (A) (A) (A) (A) (A) (A) (A) (A) (A) (A) (A) (A)
                 (A) (A) (A) (A) (A) (A) (A) (A) (A) (A) (A) (A)
                 (A) (A) (A) (A) (A) (A) (A) (A) (A) (A) (A) (A)
                 (A) (A) (A) (A) (A) (A) (A) (A) (A) (A) (A) (A)
                 (A) (A) (A) (A) (A) (A) (A) (A) (A) (A) (A) (A)
                 (A) (A) (A) (A) (A) (A) (A) (A) (A) (A) (A) (A)
                 (A) (A) (A) (A) (A) (A) (A) (A) (A) (A) (A) (A)
                 (A) (A) (A) (A) (A) (A) (A) (A) (A) (A) (A) (A)
                 (A) (A) (A) (A) (A) (A) (A) (A) (A) (A) (A) (A)
                 (A) (A) (A) (A) (A) (A) (A) (A) (A) (A) (A) (A)
                 (A) (A) (A) (A) (A) (A) (A) (A) (A) (A) (A) (A)
                 (A) (A) (A) (A) (A) (A) (A) (A) (A) (A) (A) (A)
                 (A) (A) (A) (A) (A) (A) (A) (A) (A) (A) (A) (A)
                 (A) (A) (A) (A) (A) (A) (A) (A) (A) (A) (A) (A)
                 (A) (A) (A) (A) (A) (A) (A) (A) (A) (A) (A) (A)
                 (A) (A) (A) (A) (A) (A) (A) (A) (A) (A) (A) (A)
                 (A) (A) (A) (A) (A) (A) (A) (A) (A) (A) (A) (A)
                 (A) (A)
 The electronic state of the initial guess is 1-A.
 Requested convergence on RMS density matrix=1.00D-08 within 128 cycles.
 Requested convergence on MAX density matrix=1.00D-06.
 Requested convergence on             energy=1.00D-06.
 No special actions if energy rises.
 SCF Done:  E(RB3LYP) =  -1387.64680341     A.U. after   17 cycles
             Convg  =    0.5849D-08             -V/T =  2.0043

 **********************************************************************

            Population analysis using the SCF density.

 **********************************************************************

 Orbital symmetries:
       Occupied  (A) (A) (A) (A) (A) (A) (A) (A) (A) (A) (A) (A)
                 (A) (A) (A) (A) (A) (A) (A) (A) (A) (A) (A) (A)
                 (A) (A) (A) (A) (A) (A) (A) (A) (A) (A) (A) (A)
                 (A) (A) (A) (A) (A) (A) (A) (A) (A) (A) (A) (A)
                 (A) (A) (A) (A) (A) (A) (A) (A) (A) (A) (A) (A)
                 (A) (A) (A) (A) (A) (A) (A) (A) (A) (A) (A) (A)
                 (A) (A) (A) (A) (A) (A) (A) (A) (A) (A) (A) (A)
                 (A) (A) (A) (A) (A) (A) (A) (A) (A) (A) (A) (A)
                 (A) (A) (A) (A) (A) (A) (A) (A) (A) (A) (A) (A)
                 (A) (A) (A) (A) (A) (A) (A)
       Virtual   (A) (A) (A) (A) (A) (A) (A) (A) (A) (A) (A) (A)
                 (A) (A) (A) (A) (A) (A) (A) (A) (A) (A) (A) (A)
                 (A) (A) (A) (A) (A) (A) (A) (A) (A) (A) (A) (A)
                 (A) (A) (A) (A) (A) (A) (A) (A) (A) (A) (A) (A)
                 (A) (A) (A) (A) (A) (A) (A) (A) (A) (A) (A) (A)
                 (A) (A) (A) (A) (A) (A) (A) (A) (A) (A) (A) (A)
                 (A) (A) (A) (A) (A) (A) (A) (A) (A) (A) (A) (A)
                 (A) (A) (A) (A) (A) (A) (A) (A) (A) (A) (A) (A)
                 (A) (A) (A) (A) (A) (A) (A) (A) (A) (A) (A) (A)
                 (A) (A) (A) (A) (A) (A) (A) (A) (A) (A) (A) (A)
                 (A) (A) (A) (A) (A) (A) (A) (A) (A) (A) (A) (A)
                 (A) (A) (A) (A) (A) (A) (A) (A) (A) (A) (A) (A)
                 (A) (A) (A) (A) (A) (A) (A) (A) (A) (A) (A) (A)
                 (A) (A) (A) (A) (A) (A) (A) (A) (A) (A) (A) (A)
                 (A) (A) (A) (A) (A) (A) (A) (A) (A) (A) (A) (A)
                 (A) (A) (A) (A) (A) (A) (A) (A) (A) (A) (A) (A)
                 (A) (A) (A) (A) (A) (A) (A) (A) (A) (A) (A) (A)
                 (A) (A) (A) (A) (A) (A) (A) (A) (A) (A) (A) (A)
                 (A) (A) (A) (A) (A) (A) (A) (A) (A) (A) (A) (A)
                 (A) (A) (A) (A) (A) (A) (A) (A) (A) (A) (A) (A)
                 (A) (A) (A) (A) (A) (A) (A) (A) (A) (A) (A) (A)
                 (A) (A) (A) (A) (A) (A) (A) (A) (A) (A) (A) (A)
                 (A) (A) (A) (A) (A) (A) (A) (A) (A) (A) (A) (A)
                 (A) (A) (A) (A) (A) (A) (A) (A) (A) (A) (A) (A)
                 (A) (A) (A) (A) (A) (A) (A) (A) (A) (A) (A) (A)
                 (A) (A) (A) (A) (A) (A) (A) (A) (A) (A) (A) (A)
                 (A) (A) (A) (A) (A) (A) (A) (A) (A) (A) (A) (A)
                 (A) (A) (A) (A) (A) (A) (A) (A) (A) (A) (A) (A)
                 (A) (A) (A) (A) (A) (A) (A) (A) (A) (A) (A) (A)
                 (A) (A) (A) (A) (A) (A) (A) (A) (A) (A) (A) (A)
                 (A) (A) (A) (A) (A) (A) (A) (A) (A) (A) (A) (A)
                 (A) (A) (A) (A) (A) (A) (A) (A) (A) (A) (A) (A)
                 (A) (A) (A) (A) (A) (A) (A) (A) (A) (A) (A) (A)
                 (A) (A) (A) (A) (A) (A) (A) (A) (A) (A) (A) (A)
                 (A) (A) (A) (A) (A) (A) (A) (A) (A) (A) (A) (A)
                 (A) (A) (A) (A) (A) (A) (A) (A) (A) (A) (A) (A)
                 (A) (A) (A) (A) (A) (A) (A) (A) (A) (A) (A) (A)
                 (A) (A) (A) (A) (A) (A) (A) (A) (A) (A) (A) (A)
                 (A) (A) (A) (A) (A) (A) (A) (A) (A) (A) (A) (A)
                 (A) (A) (A) (A) (A) (A) (A) (A) (A) (A) (A) (A)
                 (A) (A) (A) (A) (A) (A) (A) (A) (A) (A) (A) (A)
                 (A) (A) (A) (A) (A) (A) (A) (A) (A) (A) (A) (A)
                 (A) (A) (A) (A) (A) (A) (A) (A) (A) (A) (A) (A)
                 (A) (A) (A) (A) (A) (A) (A) (A) (A) (A) (A) (A)
                 (A) (A) (A) (A) (A) (A) (A) (A) (A) (A) (A) (A)
                 (A) (A) (A) (A) (A) (A) (A) (A) (A) (A) (A) (A)
                 (A) (A) (A) (A) (A) (A) (A) (A) (A) (A) (A) (A)
                 (A) (A) (A) (A) (A) (A) (A) (A) (A) (A) (A) (A)
                 (A) (A) (A) (A) (A) (A) (A) (A) (A) (A) (A) (A)
                 (A) (A) (A) (A) (A) (A) (A) (A) (A) (A) (A) (A)
                 (A) (A) (A) (A) (A) (A) (A) (A) (A) (A) (A) (A)
                 (A) (A) (A) (A) (A) (A) (A) (A) (A) (A) (A) (A)
                 (A) (A) (A) (A) (A) (A) (A) (A) (A) (A) (A) (A)
                 (A) (A) (A) (A) (A) (A) (A) (A) (A) (A) (A) (A)
                 (A) (A) (A) (A) (A) (A) (A) (A) (A) (A) (A) (A)
                 (A) (A)
 The electronic state is 1-A.
 Alpha  occ. eigenvalues --  -19.17778 -19.14869 -19.14030 -19.10767 -19.10234
 Alpha  occ. eigenvalues --  -10.26949 -10.26681 -10.25879 -10.25490 -10.25449
 Alpha  occ. eigenvalues --  -10.25405 -10.24427 -10.20902 -10.19945 -10.19904
 Alpha  occ. eigenvalues --  -10.19830 -10.19124 -10.18876 -10.18632 -10.18615
 Alpha  occ. eigenvalues --  -10.18058 -10.17854 -10.17748 -10.17658 -10.17643
 Alpha  occ. eigenvalues --  -10.17458 -10.16790 -10.16782 -10.15803 -10.15272
 Alpha  occ. eigenvalues --  -10.14057  -1.10441  -1.07166  -1.04294  -1.03764
 Alpha  occ. eigenvalues --   -1.03333  -0.87832  -0.84630  -0.83342  -0.82454
 Alpha  occ. eigenvalues --   -0.81246  -0.79894  -0.77624  -0.75253  -0.74235
 Alpha  occ. eigenvalues --   -0.72817  -0.71681  -0.70620  -0.70265  -0.68844
 Alpha  occ. eigenvalues --   -0.66151  -0.65023  -0.64425  -0.62954  -0.61681
 Alpha  occ. eigenvalues --   -0.60492  -0.59297  -0.57999  -0.55592  -0.54537
 Alpha  occ. eigenvalues --   -0.53788  -0.52885  -0.51886  -0.51343  -0.50277
 Alpha  occ. eigenvalues --   -0.49196  -0.48171  -0.47648  -0.47256  -0.46825
 Alpha  occ. eigenvalues --   -0.46238  -0.45805  -0.45512  -0.44659  -0.44287
 Alpha  occ. eigenvalues --   -0.43685  -0.43414  -0.42851  -0.42600  -0.42295
 Alpha  occ. eigenvalues --   -0.41769  -0.41558  -0.41253  -0.40739  -0.40357
 Alpha  occ. eigenvalues --   -0.40044  -0.39426  -0.39266  -0.39085  -0.38662
 Alpha  occ. eigenvalues --   -0.38490  -0.38399  -0.38090  -0.37924  -0.37630
 Alpha  occ. eigenvalues --   -0.37488  -0.37082  -0.36291  -0.35906  -0.35332
 Alpha  occ. eigenvalues --   -0.34768  -0.34588  -0.33821  -0.33244  -0.32696
 Alpha  occ. eigenvalues --   -0.32432  -0.32045  -0.31722  -0.29376  -0.27899
 Alpha  occ. eigenvalues --   -0.27409  -0.25917  -0.25461  -0.24756  -0.23849
 Alpha virt. eigenvalues --   -0.06318  -0.03160  -0.01974  -0.01381  -0.00281
 Alpha virt. eigenvalues --   -0.00110   0.00218   0.01207   0.01473   0.01766
 Alpha virt. eigenvalues --    0.02102   0.02263   0.03089   0.03236   0.03489
 Alpha virt. eigenvalues --    0.03712   0.04058   0.04210   0.04682   0.04902
 Alpha virt. eigenvalues --    0.05205   0.05535   0.05769   0.06023   0.06384
 Alpha virt. eigenvalues --    0.06532   0.06603   0.07230   0.07533   0.07878
 Alpha virt. eigenvalues --    0.07921   0.08089   0.08461   0.08674   0.08875
 Alpha virt. eigenvalues --    0.08985   0.09298   0.09591   0.09655   0.09878
 Alpha virt. eigenvalues --    0.10202   0.10472   0.10617   0.10918   0.11250
 Alpha virt. eigenvalues --    0.11365   0.11752   0.11925   0.12205   0.12421
 Alpha virt. eigenvalues --    0.12575   0.12888   0.13056   0.13274   0.13427
 Alpha virt. eigenvalues --    0.13652   0.14010   0.14308   0.14432   0.14667
 Alpha virt. eigenvalues --    0.14828   0.15174   0.15428   0.15834   0.15965
 Alpha virt. eigenvalues --    0.16246   0.16444   0.16929   0.17086   0.17196
 Alpha virt. eigenvalues --    0.17306   0.17643   0.17886   0.18036   0.18233
 Alpha virt. eigenvalues --    0.18429   0.18511   0.18678   0.18867   0.19114
 Alpha virt. eigenvalues --    0.19251   0.19598   0.19880   0.19920   0.20023
 Alpha virt. eigenvalues --    0.20519   0.20594   0.20705   0.20878   0.20982
 Alpha virt. eigenvalues --    0.21245   0.21507   0.21697   0.21818   0.22010
 Alpha virt. eigenvalues --    0.22169   0.22339   0.22543   0.22903   0.23003
 Alpha virt. eigenvalues --    0.23050   0.23325   0.23694   0.23757   0.23923
 Alpha virt. eigenvalues --    0.24026   0.24411   0.24850   0.24898   0.25077
 Alpha virt. eigenvalues --    0.25142   0.25440   0.25644   0.25866   0.26050
 Alpha virt. eigenvalues --    0.26287   0.26526   0.26713   0.26842   0.26988
 Alpha virt. eigenvalues --    0.27503   0.27745   0.27873   0.28006   0.28255
 Alpha virt. eigenvalues --    0.28560   0.28787   0.29065   0.29426   0.29600
 Alpha virt. eigenvalues --    0.29889   0.30036   0.30385   0.30658   0.30860
 Alpha virt. eigenvalues --    0.31018   0.31438   0.31694   0.32020   0.32453
 Alpha virt. eigenvalues --    0.32553   0.32731   0.33061   0.33168   0.33372
 Alpha virt. eigenvalues --    0.33603   0.34302   0.34379   0.34767   0.35061
 Alpha virt. eigenvalues --    0.35683   0.35855   0.36027   0.36460   0.36592
 Alpha virt. eigenvalues --    0.36965   0.37432   0.37616   0.38079   0.38469
 Alpha virt. eigenvalues --    0.38627   0.38698   0.39525   0.39899   0.40584
 Alpha virt. eigenvalues --    0.40754   0.40831   0.41023   0.41414   0.41836
 Alpha virt. eigenvalues --    0.42566   0.42666   0.43187   0.43539   0.43814
 Alpha virt. eigenvalues --    0.44074   0.44207   0.44454   0.44777   0.45064
 Alpha virt. eigenvalues --    0.45853   0.46392   0.46975   0.47278   0.47533
 Alpha virt. eigenvalues --    0.47820   0.48084   0.48469   0.48872   0.49436
 Alpha virt. eigenvalues --    0.49829   0.49982   0.50812   0.51679   0.51894
 Alpha virt. eigenvalues --    0.52012   0.52526   0.53283   0.54035   0.54329
 Alpha virt. eigenvalues --    0.54820   0.55115   0.55615   0.56002   0.56015
 Alpha virt. eigenvalues --    0.56309   0.56890   0.57343   0.57388   0.58066
 Alpha virt. eigenvalues --    0.58733   0.58894   0.59411   0.59630   0.60145
 Alpha virt. eigenvalues --    0.60501   0.60566   0.60921   0.61062   0.61314
 Alpha virt. eigenvalues --    0.62362   0.62824   0.63128   0.63685   0.63969
 Alpha virt. eigenvalues --    0.64162   0.64572   0.65344   0.65596   0.66080
 Alpha virt. eigenvalues --    0.66622   0.66819   0.67014   0.67159   0.67413
 Alpha virt. eigenvalues --    0.67570   0.67945   0.68425   0.68546   0.69183
 Alpha virt. eigenvalues --    0.69200   0.69557   0.70096   0.70342   0.70483
 Alpha virt. eigenvalues --    0.70803   0.70993   0.71106   0.71311   0.71856
 Alpha virt. eigenvalues --    0.72024   0.72201   0.72928   0.73184   0.73576
 Alpha virt. eigenvalues --    0.73700   0.74079   0.74572   0.74721   0.74976
 Alpha virt. eigenvalues --    0.75237   0.76082   0.76312   0.76528   0.76583
 Alpha virt. eigenvalues --    0.77187   0.77624   0.77929   0.78330   0.78805
 Alpha virt. eigenvalues --    0.79108   0.79382   0.80034   0.80241   0.80906
 Alpha virt. eigenvalues --    0.81207   0.81415   0.82001   0.82304   0.83498
 Alpha virt. eigenvalues --    0.83806   0.84058   0.84209   0.84873   0.85538
 Alpha virt. eigenvalues --    0.86216   0.86870   0.87194   0.88024   0.89317
 Alpha virt. eigenvalues --    0.89708   0.90519   0.91252   0.91983   0.92948
 Alpha virt. eigenvalues --    0.93747   0.94675   0.95735   0.96288   0.96847
 Alpha virt. eigenvalues --    0.97187   0.97597   0.98801   0.99702   1.00450
 Alpha virt. eigenvalues --    1.01525   1.02525   1.04113   1.04961   1.06110
 Alpha virt. eigenvalues --    1.06949   1.08165   1.08262   1.09375   1.09878
 Alpha virt. eigenvalues --    1.11230   1.11997   1.13113   1.14493   1.15198
 Alpha virt. eigenvalues --    1.15796   1.16599   1.18148   1.18277   1.20633
 Alpha virt. eigenvalues --    1.21229   1.21653   1.22393   1.23102   1.24151
 Alpha virt. eigenvalues --    1.24487   1.25490   1.25914   1.26934   1.27766
 Alpha virt. eigenvalues --    1.28428   1.29965   1.30062   1.31126   1.31575
 Alpha virt. eigenvalues --    1.32451   1.33799   1.34448   1.34488   1.34988
 Alpha virt. eigenvalues --    1.35497   1.36862   1.37029   1.37752   1.38879
 Alpha virt. eigenvalues --    1.39504   1.41186   1.42247   1.43010   1.43769
 Alpha virt. eigenvalues --    1.44808   1.45225   1.45310   1.47210   1.48645
 Alpha virt. eigenvalues --    1.48741   1.50256   1.50909   1.51190   1.52119
 Alpha virt. eigenvalues --    1.53311   1.53648   1.54665   1.54985   1.55344
 Alpha virt. eigenvalues --    1.55568   1.56067   1.56659   1.57341   1.57755
 Alpha virt. eigenvalues --    1.58491   1.58852   1.59664   1.59836   1.60474
 Alpha virt. eigenvalues --    1.60761   1.61147   1.61857   1.62230   1.62767
 Alpha virt. eigenvalues --    1.63192   1.63395   1.63971   1.65128   1.65175
 Alpha virt. eigenvalues --    1.65763   1.65868   1.66770   1.66920   1.67326
 Alpha virt. eigenvalues --    1.67661   1.68659   1.69159   1.69998   1.70065
 Alpha virt. eigenvalues --    1.70589   1.71503   1.72660   1.73110   1.73271
 Alpha virt. eigenvalues --    1.74188   1.74389   1.74919   1.75622   1.76457
 Alpha virt. eigenvalues --    1.76785   1.77297   1.78083   1.78240   1.79955
 Alpha virt. eigenvalues --    1.80646   1.81751   1.81901   1.83120   1.84038
 Alpha virt. eigenvalues --    1.84728   1.85233   1.85744   1.85980   1.87271
 Alpha virt. eigenvalues --    1.87724   1.88727   1.90249   1.90913   1.91708
 Alpha virt. eigenvalues --    1.92731   1.93021   1.94680   1.95581   1.95675
 Alpha virt. eigenvalues --    1.96800   1.98509   1.99644   2.00895   2.02026
 Alpha virt. eigenvalues --    2.02977   2.03489   2.04247   2.04848   2.06024
 Alpha virt. eigenvalues --    2.07018   2.07555   2.09211   2.09877   2.11431
 Alpha virt. eigenvalues --    2.12287   2.12372   2.13954   2.15254   2.16056
 Alpha virt. eigenvalues --    2.17309   2.17648   2.19088   2.19783   2.20420
 Alpha virt. eigenvalues --    2.21936   2.22775   2.23612   2.24660   2.26695
 Alpha virt. eigenvalues --    2.27708   2.28709   2.30726   2.31689   2.33038
 Alpha virt. eigenvalues --    2.34981   2.37765   2.38250   2.39840   2.42655
 Alpha virt. eigenvalues --    2.44031   2.47489   2.48785   2.50844   2.51531
 Alpha virt. eigenvalues --    2.51780   2.52647   2.53930   2.54315   2.54547
 Alpha virt. eigenvalues --    2.55679   2.56442   2.56685   2.57227   2.57670
 Alpha virt. eigenvalues --    2.58593   2.59197   2.60122   2.60850   2.61496
 Alpha virt. eigenvalues --    2.62293   2.63693   2.64896   2.66038   2.66254
 Alpha virt. eigenvalues --    2.66917   2.68526   2.70081   2.70603   2.71305
 Alpha virt. eigenvalues --    2.71419   2.72000   2.72430   2.74292   2.75854
 Alpha virt. eigenvalues --    2.75960   2.78137   2.81697   2.82346   2.84159
 Alpha virt. eigenvalues --    2.85401   2.87119   2.88693   2.89132   2.90235
 Alpha virt. eigenvalues --    2.90455   2.91880   2.92173   2.94353   2.95160
 Alpha virt. eigenvalues --    2.95784   2.97635   2.97804   2.98486   2.99357
 Alpha virt. eigenvalues --    2.99700   3.00693   3.01617   3.02734   3.03892
 Alpha virt. eigenvalues --    3.04231   3.05443   3.07416   3.08677   3.09436
 Alpha virt. eigenvalues --    3.10206   3.11095   3.11975   3.12810   3.13577
 Alpha virt. eigenvalues --    3.14825   3.15876   3.16051   3.16713   3.17742
 Alpha virt. eigenvalues --    3.18047   3.19489   3.20040   3.21369   3.22104
 Alpha virt. eigenvalues --    3.22924   3.23789   3.24501   3.25106   3.26028
 Alpha virt. eigenvalues --    3.26708   3.27613   3.27958   3.29315   3.29742
 Alpha virt. eigenvalues --    3.29990   3.31237   3.32360   3.33389   3.34135
 Alpha virt. eigenvalues --    3.34706   3.35888   3.36238   3.37890   3.39117
 Alpha virt. eigenvalues --    3.40278   3.40842   3.41891   3.42831   3.44303
 Alpha virt. eigenvalues --    3.46269   3.47071   3.50317   3.51766   3.53236
 Alpha virt. eigenvalues --    3.54170   3.59483   3.61919   3.66739   3.73743
 Alpha virt. eigenvalues --    3.75243   3.77842   3.80266   3.87199   3.87982
 Alpha virt. eigenvalues --    3.89452   3.95782   3.97480   4.01291   4.02347
 Alpha virt. eigenvalues --    4.05592   4.06241   4.08934   4.10399   4.12438
 Alpha virt. eigenvalues --    4.17097   4.17746   4.20312   4.21954   4.22966
 Alpha virt. eigenvalues --    4.23442   4.28226   4.32658   4.34039   4.44523
 Alpha virt. eigenvalues --    4.60720   5.13719   5.15609   5.17387   5.21844
 Alpha virt. eigenvalues --    5.23526   5.28620   5.31577   5.32686   5.42096
 Alpha virt. eigenvalues --    5.42697   5.57052   5.66085   5.73647   5.79275
 Alpha virt. eigenvalues --    5.83926  23.45218  23.47004  23.52380  23.53140
 Alpha virt. eigenvalues --   23.62341  23.64494  23.65989  23.66773  23.69298
 Alpha virt. eigenvalues --   23.70565  23.74149  23.75290  23.76276  23.78405
 Alpha virt. eigenvalues --   23.79047  23.80019  23.82293  23.84256  23.86124
 Alpha virt. eigenvalues --   23.87139  23.88073  23.89629  23.95732  24.15283
 Alpha virt. eigenvalues --   24.18918  24.21691  49.98968  49.99990  50.02141
 Alpha virt. eigenvalues --   50.03276  50.06605
          Condensed to atoms (all electrons):
 Mulliken atomic charges:
              1
     1  C   -0.403859
     2  C    0.765779
     3  C   -0.247927
     4  C   -0.718967
     5  C    1.039767
     6  C   -0.895757
     7  C   -1.233784
     8  C    0.443288
     9  C    0.926778
    10  C   -0.663034
    11  C   -0.416551
    12  O   -0.188427
    13  C    0.584528
    14  C   -0.383586
    15  C   -1.185620
    16  O   -0.191523
    17  C   -0.250837
    18  C    0.678782
    19  O    0.184891
    20  C   -1.177479
    21  O    0.010599
    22  C   -0.495001
    23  C   -0.514917
    24  O    0.051169
    25  C    0.957020
    26  C   -1.023820
    27  C   -0.979703
    28  C   -0.717004
    29  C   -0.780090
    30  H    0.238000
    31  H    0.272970
    32  C   -1.111872
    33  H    0.201209
    34  H    0.238999
    35  H    0.280972
    36  H    0.292436
    37  H    0.246738
    38  H    0.219265
    39  H    0.286361
    40  H    0.256448
    41  H    0.252470
    42  H    0.278273
    43  H    0.270782
    44  H    0.285762
    45  H    0.282864
    46  H    0.273542
    47  H    0.233504
    48  H    0.262785
    49  H    0.268245
    50  H    0.255067
    51  H    0.230374
    52  H    0.238731
    53  H    0.267889
    54  H    0.245680
    55  H    0.312858
    56  H    0.261162
    57  H    0.256873
    58  H    0.271826
    59  H    0.257960
    60  H    0.260183
    61  H    0.257893
    62  C   -0.848420
    63  H    0.235187
    64  H    0.265829
    65  H    0.226435
 Sum of Mulliken atomic charges =   0.00000
 Mulliken charges with hydrogens summed into heavy atoms:
              1
     1  C   -0.202650
     2  C    0.765779
     3  C    0.025043
     4  C   -0.718967
     5  C    1.039767
     6  C   -0.375786
     7  C   -1.233784
     8  C    0.443288
     9  C    0.926778
    10  C   -0.663034
    11  C   -0.416551
    12  O   -0.188427
    13  C    0.876964
    14  C    0.082417
    15  C   -0.390342
    16  O   -0.191523
    17  C   -0.012837
    18  C    0.678782
    19  O    0.184891
    20  C   -0.628424
    21  O    0.296362
    22  C    0.061404
    23  C   -0.281412
    24  O    0.051169
    25  C    0.957020
    26  C   -0.237723
    27  C   -0.510597
    28  C    0.109423
    29  C    0.009772
    32  C   -0.335835
    62  C   -0.120968
 Sum of Mulliken charges with hydrogens summed into heavy atoms =   0.00000
 Electronic spatial extent (au):  <R**2>=          11480.5193
 Charge=              0.0000 electrons
 Dipole moment (field-independent basis, Debye):
    X=              4.5024    Y=              1.8972    Z=              4.5690  Tot=              6.6892
 Quadrupole moment (field-independent basis, Debye-Ang):
   XX=           -188.6492   YY=           -183.0833   ZZ=           -190.9837
   XY=              0.1009   XZ=            -10.6583   YZ=              3.2664
 Traceless Quadrupole moment (field-independent basis, Debye-Ang):
   XX=             -1.0771   YY=              4.4887   ZZ=             -3.4116
   XY=              0.1009   XZ=            -10.6583   YZ=              3.2664
 Octapole moment (field-independent basis, Debye-Ang**2):
  XXX=             72.1481  YYY=             66.8087  ZZZ=              7.4896  XYY=              4.7655
  XXY=            -13.3639  XXZ=             -0.8197  XZZ=             25.5720  YZZ=             -3.1380
  YYZ=             18.6787  XYZ=             -2.5432
 Hexadecapole moment (field-independent basis, Debye-Ang**3):
 XXXX=          -8700.7429 YYYY=          -3857.9591 ZZZZ=          -3110.0179 XXXY=             92.8352
 XXXZ=           -119.1376 YYYX=            -36.3923 YYYZ=            -44.4118 ZZZX=            -53.3700
 ZZZY=             21.8342 XXYY=          -2109.9601 XXZZ=          -1996.4346 YYZZ=          -1183.2641
 XXYZ=              7.1855 YYXZ=             14.6577 ZZXY=             20.4254
 N-N= 3.519521718072D+03 E-N=-1.027197581559D+04  KE= 1.381708095879D+03
 Calling FoFJK, ICntrl=      2127 FMM=T ISym2X=0 I1Cent= 0 IOpClX= 0 NMat=1 NMatS=1 NMatT=0.
 ***** Axes restored to original set *****
 -------------------------------------------------------------------
 Center     Atomic                   Forces (Hartrees/Bohr)
 Number     Number              X              Y              Z
 -------------------------------------------------------------------
      1        6           0.000476461    0.002561177    0.000980726
      2        6           0.000533667   -0.002692303   -0.000582312
      3        6          -0.000424797    0.000406827   -0.000077778
      4        6          -0.000468929    0.000307326    0.001379279
      5        6          -0.000052831   -0.000308188   -0.000198914
      6        6           0.000020807    0.000110683   -0.000057442
      7        6          -0.002518780   -0.000225466    0.001142229
      8        6          -0.002973746    0.000363611   -0.000451692
      9        6           0.001297724    0.000649855    0.000487357
     10        6          -0.002164134   -0.005044454   -0.002152797
     11        6          -0.002853154    0.004931965   -0.004817909
     12        8           0.003405070   -0.006390156    0.004973217
     13        6          -0.000031247    0.000342963   -0.000167013
     14        6           0.000008467   -0.000281604   -0.000155069
     15        6          -0.000040085    0.000230542    0.000106282
     16        8           0.002189928    0.007113196    0.001267598
     17        6           0.000387262    0.000151000    0.000117357
     18        6           0.000484893    0.001782457    0.000468116
     19        8           0.001987060   -0.004187519   -0.000164822
     20        6          -0.000468225   -0.000025162    0.000049059
     21        8           0.005732860   -0.000406514    0.003325502
     22        6           0.000412080    0.000122436   -0.000566821
     23        6           0.001031085   -0.001687345   -0.000917805
     24        8          -0.000548027   -0.000569140    0.000694776
     25        6           0.000583951   -0.000489122   -0.002165602
     26        6          -0.000085747    0.000088279    0.000234845
     27        6           0.000122925   -0.000019879    0.002107121
     28        6           0.000062633   -0.000261027    0.000397619
     29        6           0.000443783   -0.000284314   -0.000090732
     30        1          -0.001112746   -0.000667678   -0.000153068
     31        1          -0.001282367   -0.000505549   -0.000168180
     32        6          -0.000123765    0.000258481    0.000142846
     33        1           0.000168862    0.000596281   -0.000586301
     34        1          -0.001650278    0.000223976   -0.000205896
     35        1           0.001350403    0.000839660    0.000965473
     36        1          -0.000734095    0.001204361    0.000162291
     37        1          -0.000411832   -0.000611902    0.001356936
     38        1           0.000632234    0.000972235   -0.000654564
     39        1          -0.001797283    0.000200203   -0.000207598
     40        1           0.001038157    0.001165658   -0.000320920
     41        1           0.000591404   -0.001562820   -0.000272087
     42        1           0.001590531    0.000500871    0.000215363
     43        1          -0.000475204   -0.000869357   -0.001201979
     44        1          -0.004109602    0.001919636   -0.003897202
     45        1          -0.000160257    0.001439466    0.000323310
     46        1           0.000267201   -0.001400313    0.001070805
     47        1          -0.000557833    0.001205315   -0.000872049
     48        1          -0.000630424    0.001075281   -0.001037398
     49        1           0.000920708   -0.001189570   -0.000863658
     50        1          -0.000983539   -0.000429056    0.001224389
     51        1          -0.000757151   -0.000389813    0.000541052
     52        1           0.000789487    0.000609487    0.000435869
     53        1           0.001467835   -0.000370288    0.000579896
     54        1          -0.000674343   -0.001072325   -0.000806222
     55        1          -0.001170358    0.001548569    0.000689530
     56        1          -0.001013873   -0.000991534   -0.000488943
     57        1           0.000451089    0.001339401   -0.000988757
     58        1           0.001218795   -0.000523637    0.001046343
     59        1           0.000518754    0.001492920   -0.000671061
     60        1          -0.001232536   -0.000746813   -0.000685058
     61        1           0.001229952   -0.001173468    0.000232465
     62        6           0.000287695    0.000034748    0.000118616
     63        1           0.001326256    0.000334659    0.000785668
     64        1          -0.001402943   -0.001007289    0.000576249
[...]
                 (A) (A) (A) (A) (A) (A) (A) (A) (A) (A) (A) (A)
                 (A) (A) (A) (A) (A) (A) (A) (A) (A) (A) (A) (A)
                 (A) (A) (A) (A) (A) (A) (A) (A) (A) (A) (A) (A)
                 (A) (A)
 The electronic state is 1-A.
 Alpha  occ. eigenvalues --  -19.17666 -19.14675 -19.13878 -19.10688 -19.10572
 Alpha  occ. eigenvalues --  -10.26630 -10.26509 -10.25895 -10.25633 -10.25373
 Alpha  occ. eigenvalues --  -10.25350 -10.24284 -10.20814 -10.19840 -10.19792
 Alpha  occ. eigenvalues --  -10.19688 -10.19001 -10.18731 -10.18510 -10.18382
 Alpha  occ. eigenvalues --  -10.17916 -10.17824 -10.17622 -10.17529 -10.17517
 Alpha  occ. eigenvalues --  -10.17344 -10.16996 -10.16737 -10.15921 -10.15399
 Alpha  occ. eigenvalues --  -10.14192  -1.10330  -1.06913  -1.04533  -1.03862
 Alpha  occ. eigenvalues --   -1.03682  -0.87839  -0.84677  -0.83375  -0.82503
 Alpha  occ. eigenvalues --   -0.81283  -0.80169  -0.77699  -0.75254  -0.74250
 Alpha  occ. eigenvalues --   -0.72894  -0.71872  -0.70718  -0.70290  -0.68861
 Alpha  occ. eigenvalues --   -0.66228  -0.65206  -0.64402  -0.63058  -0.61668
 Alpha  occ. eigenvalues --   -0.60519  -0.59452  -0.58007  -0.55725  -0.54613
 Alpha  occ. eigenvalues --   -0.53702  -0.53033  -0.51793  -0.51324  -0.50276
 Alpha  occ. eigenvalues --   -0.49194  -0.48319  -0.47719  -0.47257  -0.46834
 Alpha  occ. eigenvalues --   -0.46290  -0.45984  -0.45499  -0.44709  -0.44322
 Alpha  occ. eigenvalues --   -0.43788  -0.43544  -0.42889  -0.42617  -0.42335
 Alpha  occ. eigenvalues --   -0.41807  -0.41598  -0.41328  -0.40773  -0.40403
 Alpha  occ. eigenvalues --   -0.40028  -0.39614  -0.39264  -0.39092  -0.38672
 Alpha  occ. eigenvalues --   -0.38511  -0.38355  -0.38145  -0.37905  -0.37825
 Alpha  occ. eigenvalues --   -0.37571  -0.37258  -0.36452  -0.35966  -0.35330
 Alpha  occ. eigenvalues --   -0.34745  -0.34557  -0.33889  -0.33165  -0.32948
 Alpha  occ. eigenvalues --   -0.32485  -0.32099  -0.31940  -0.29283  -0.27810
 Alpha  occ. eigenvalues --   -0.27371  -0.26004  -0.25358  -0.24772  -0.23937
 Alpha virt. eigenvalues --   -0.06022  -0.02920  -0.01887  -0.01368  -0.00273
 Alpha virt. eigenvalues --   -0.00042   0.00214   0.01183   0.01468   0.01766
 Alpha virt. eigenvalues --    0.02053   0.02297   0.03087   0.03221   0.03516
 Alpha virt. eigenvalues --    0.03736   0.03923   0.04253   0.04616   0.04972
 Alpha virt. eigenvalues --    0.05182   0.05491   0.05738   0.05976   0.06349
 Alpha virt. eigenvalues --    0.06510   0.06621   0.07248   0.07578   0.07715
 Alpha virt. eigenvalues --    0.07872   0.08126   0.08383   0.08593   0.08859
 Alpha virt. eigenvalues --    0.08902   0.09336   0.09559   0.09693   0.09859
 Alpha virt. eigenvalues --    0.10255   0.10451   0.10591   0.10945   0.11209
 Alpha virt. eigenvalues --    0.11476   0.11773   0.11947   0.12195   0.12386
 Alpha virt. eigenvalues --    0.12606   0.12838   0.13130   0.13209   0.13472
 Alpha virt. eigenvalues --    0.13710   0.14062   0.14311   0.14377   0.14713
 Alpha virt. eigenvalues --    0.14946   0.15188   0.15493   0.15847   0.16004
 Alpha virt. eigenvalues --    0.16159   0.16518   0.16902   0.17151   0.17206
 Alpha virt. eigenvalues --    0.17377   0.17674   0.17821   0.18058   0.18207
 Alpha virt. eigenvalues --    0.18393   0.18554   0.18695   0.18913   0.19123
 Alpha virt. eigenvalues --    0.19437   0.19691   0.19836   0.19967   0.20059
 Alpha virt. eigenvalues --    0.20391   0.20573   0.20707   0.20934   0.21121
 Alpha virt. eigenvalues --    0.21279   0.21451   0.21667   0.21782   0.22082
 Alpha virt. eigenvalues --    0.22117   0.22444   0.22619   0.22908   0.23059
 Alpha virt. eigenvalues --    0.23122   0.23321   0.23583   0.23788   0.23876
 Alpha virt. eigenvalues --    0.24005   0.24475   0.24688   0.24893   0.25111
 Alpha virt. eigenvalues --    0.25231   0.25444   0.25605   0.25965   0.26170
 Alpha virt. eigenvalues --    0.26300   0.26559   0.26689   0.26922   0.26942
 Alpha virt. eigenvalues --    0.27380   0.27802   0.27979   0.28068   0.28250
 Alpha virt. eigenvalues --    0.28596   0.28770   0.28918   0.29556   0.29729
 Alpha virt. eigenvalues --    0.29932   0.29969   0.30403   0.30726   0.30936
 Alpha virt. eigenvalues --    0.31173   0.31471   0.31784   0.32159   0.32336
 Alpha virt. eigenvalues --    0.32537   0.32839   0.33048   0.33328   0.33455
 Alpha virt. eigenvalues --    0.33756   0.34306   0.34696   0.35012   0.35149
 Alpha virt. eigenvalues --    0.35541   0.35734   0.36402   0.36539   0.36694
 Alpha virt. eigenvalues --    0.37005   0.37535   0.37734   0.38065   0.38442
 Alpha virt. eigenvalues --    0.38647   0.38967   0.39607   0.40149   0.40375
 Alpha virt. eigenvalues --    0.40406   0.40949   0.41144   0.41640   0.41752
 Alpha virt. eigenvalues --    0.42737   0.42938   0.43168   0.43558   0.43991
 Alpha virt. eigenvalues --    0.44078   0.44257   0.44616   0.44857   0.45213
 Alpha virt. eigenvalues --    0.45785   0.46768   0.47181   0.47317   0.47690
 Alpha virt. eigenvalues --    0.47852   0.48229   0.48516   0.48865   0.49577
 Alpha virt. eigenvalues --    0.49623   0.50079   0.50744   0.51643   0.51915
 Alpha virt. eigenvalues --    0.51958   0.52353   0.53151   0.53912   0.54104
 Alpha virt. eigenvalues --    0.54829   0.55213   0.55593   0.56076   0.56235
 Alpha virt. eigenvalues --    0.56488   0.57146   0.57264   0.57809   0.58149
 Alpha virt. eigenvalues --    0.58554   0.58973   0.59415   0.59499   0.60224
 Alpha virt. eigenvalues --    0.60602   0.60614   0.60908   0.61361   0.61502
 Alpha virt. eigenvalues --    0.62004   0.62634   0.63303   0.63677   0.64118
 Alpha virt. eigenvalues --    0.64210   0.64751   0.65346   0.65799   0.66229
 Alpha virt. eigenvalues --    0.66564   0.66951   0.67153   0.67329   0.67724
 Alpha virt. eigenvalues --    0.67885   0.68022   0.68412   0.68901   0.69288
 Alpha virt. eigenvalues --    0.69346   0.69722   0.70179   0.70338   0.70430
 Alpha virt. eigenvalues --    0.70770   0.71119   0.71257   0.71444   0.71772
 Alpha virt. eigenvalues --    0.72124   0.72385   0.72788   0.73323   0.73406
 Alpha virt. eigenvalues --    0.73801   0.74220   0.74422   0.74796   0.75093
 Alpha virt. eigenvalues --    0.75491   0.76051   0.76494   0.76707   0.77001
 Alpha virt. eigenvalues --    0.77238   0.77413   0.78068   0.78485   0.78895
 Alpha virt. eigenvalues --    0.79228   0.79272   0.80104   0.80330   0.80833
 Alpha virt. eigenvalues --    0.81295   0.81748   0.82372   0.82756   0.83661
 Alpha virt. eigenvalues --    0.83838   0.84112   0.84515   0.84575   0.85677
 Alpha virt. eigenvalues --    0.86447   0.86707   0.87523   0.88792   0.89085
 Alpha virt. eigenvalues --    0.89864   0.90445   0.91001   0.91603   0.92686
 Alpha virt. eigenvalues --    0.93337   0.94694   0.95692   0.95954   0.96916
 Alpha virt. eigenvalues --    0.97200   0.97564   0.98468   0.99649   1.00873
 Alpha virt. eigenvalues --    1.01606   1.02756   1.04258   1.05140   1.06362
 Alpha virt. eigenvalues --    1.07431   1.07835   1.08714   1.09540   1.10121
 Alpha virt. eigenvalues --    1.11388   1.11932   1.13671   1.14250   1.15472
 Alpha virt. eigenvalues --    1.16236   1.16876   1.17999   1.18502   1.19910
 Alpha virt. eigenvalues --    1.21111   1.21702   1.22754   1.23115   1.23857
 Alpha virt. eigenvalues --    1.24695   1.25908   1.26641   1.27010   1.28025
 Alpha virt. eigenvalues --    1.28649   1.29659   1.30461   1.30925   1.31960
 Alpha virt. eigenvalues --    1.32912   1.33049   1.34000   1.34952   1.35049
 Alpha virt. eigenvalues --    1.35142   1.37118   1.37412   1.38040   1.38926
 Alpha virt. eigenvalues --    1.39865   1.41154   1.42391   1.42840   1.43524
 Alpha virt. eigenvalues --    1.44850   1.45303   1.45332   1.47323   1.48392
 Alpha virt. eigenvalues --    1.49341   1.50357   1.50696   1.51360   1.52212
 Alpha virt. eigenvalues --    1.53311   1.54066   1.54495   1.54938   1.55147
 Alpha virt. eigenvalues --    1.55846   1.55987   1.56912   1.57357   1.57827
 Alpha virt. eigenvalues --    1.58631   1.59077   1.59687   1.59848   1.60519
 Alpha virt. eigenvalues --    1.60996   1.61162   1.61855   1.62496   1.62772
 Alpha virt. eigenvalues --    1.63199   1.63669   1.64104   1.65120   1.65322
 Alpha virt. eigenvalues --    1.65637   1.66129   1.66607   1.66979   1.67548
 Alpha virt. eigenvalues --    1.67892   1.68398   1.69142   1.69850   1.70253
 Alpha virt. eigenvalues --    1.70868   1.71701   1.72407   1.73305   1.73573
 Alpha virt. eigenvalues --    1.74329   1.74488   1.75047   1.75362   1.76327
 Alpha virt. eigenvalues --    1.76831   1.77923   1.77974   1.78539   1.79636
 Alpha virt. eigenvalues --    1.81382   1.81901   1.82295   1.83477   1.84284
 Alpha virt. eigenvalues --    1.84568   1.85416   1.85720   1.86042   1.87532
 Alpha virt. eigenvalues --    1.87888   1.88971   1.90223   1.91266   1.92076
 Alpha virt. eigenvalues --    1.92843   1.93724   1.94572   1.95527   1.96249
 Alpha virt. eigenvalues --    1.97502   1.99154   1.99838   2.00653   2.01804
 Alpha virt. eigenvalues --    2.02916   2.03418   2.04212   2.04846   2.05930
 Alpha virt. eigenvalues --    2.07031   2.07628   2.09242   2.09810   2.11762
 Alpha virt. eigenvalues --    2.12111   2.12717   2.14884   2.15291   2.16469
 Alpha virt. eigenvalues --    2.17387   2.17701   2.18723   2.20108   2.21117
 Alpha virt. eigenvalues --    2.21848   2.23411   2.23929   2.25449   2.26720
 Alpha virt. eigenvalues --    2.28341   2.29614   2.30948   2.32194   2.33267
 Alpha virt. eigenvalues --    2.35403   2.37758   2.38450   2.40214   2.42814
 Alpha virt. eigenvalues --    2.44245   2.47859   2.48517   2.50366   2.51374
 Alpha virt. eigenvalues --    2.51477   2.52554   2.54179   2.54292   2.54960
 Alpha virt. eigenvalues --    2.55761   2.56574   2.56837   2.57039   2.57549
 Alpha virt. eigenvalues --    2.59043   2.59163   2.59781   2.61096   2.61592
 Alpha virt. eigenvalues --    2.62763   2.63994   2.65292   2.65817   2.66584
 Alpha virt. eigenvalues --    2.67087   2.68536   2.70112   2.70479   2.71150
 Alpha virt. eigenvalues --    2.71992   2.72421   2.72762   2.74272   2.75843
 Alpha virt. eigenvalues --    2.76694   2.78090   2.82087   2.83462   2.84470
 Alpha virt. eigenvalues --    2.85312   2.86744   2.88520   2.89284   2.90093
 Alpha virt. eigenvalues --    2.90779   2.92211   2.92525   2.94153   2.95579
 Alpha virt. eigenvalues --    2.95886   2.97581   2.98163   2.98785   2.99659
 Alpha virt. eigenvalues --    3.00005   3.01255   3.01825   3.02984   3.04102
 Alpha virt. eigenvalues --    3.04251   3.05594   3.07605   3.08662   3.09614
 Alpha virt. eigenvalues --    3.10387   3.11871   3.12228   3.13042   3.13796
 Alpha virt. eigenvalues --    3.14937   3.16239   3.16331   3.16914   3.17822
 Alpha virt. eigenvalues --    3.17916   3.19857   3.20429   3.21471   3.22677
 Alpha virt. eigenvalues --    3.23672   3.24030   3.25133   3.25899   3.26908
 Alpha virt. eigenvalues --    3.27119   3.28030   3.28128   3.29587   3.30250
 Alpha virt. eigenvalues --    3.30446   3.31607   3.33047   3.33921   3.34506
 Alpha virt. eigenvalues --    3.35244   3.36394   3.36409   3.38139   3.39882
 Alpha virt. eigenvalues --    3.41454   3.41800   3.42264   3.43409   3.44897
 Alpha virt. eigenvalues --    3.46961   3.47526   3.50478   3.51977   3.53291
 Alpha virt. eigenvalues --    3.54766   3.59871   3.61859   3.66018   3.74304
 Alpha virt. eigenvalues --    3.76453   3.78180   3.80696   3.87469   3.88129
 Alpha virt. eigenvalues --    3.89726   3.97252   3.98197   4.01676   4.02879
 Alpha virt. eigenvalues --    4.05660   4.06017   4.09344   4.10175   4.12836
 Alpha virt. eigenvalues --    4.17635   4.17825   4.20096   4.21927   4.22908
 Alpha virt. eigenvalues --    4.23749   4.28632   4.31348   4.32986   4.45105
 Alpha virt. eigenvalues --    4.61270   5.14432   5.16681   5.17445   5.21799
 Alpha virt. eigenvalues --    5.23623   5.28245   5.31413   5.32679   5.42192
 Alpha virt. eigenvalues --    5.42774   5.57146   5.66432   5.73993   5.79235
 Alpha virt. eigenvalues --    5.84309  23.45268  23.47128  23.52653  23.53274
 Alpha virt. eigenvalues --   23.62344  23.64520  23.66314  23.67121  23.69312
 Alpha virt. eigenvalues --   23.71102  23.74483  23.75416  23.76821  23.78528
 Alpha virt. eigenvalues --   23.79311  23.80040  23.82662  23.84539  23.86722
 Alpha virt. eigenvalues --   23.87094  23.89243  23.89930  23.96608  24.18297
 Alpha virt. eigenvalues --   24.20048  24.23114  49.99012  49.99977  50.02384
 Alpha virt. eigenvalues --   50.03339  50.07278
          Condensed to atoms (all electrons):
 Mulliken atomic charges:
              1
     1  C   -0.415715
     2  C    0.795086
     3  C   -0.304403
     4  C   -0.851084
     5  C    1.100272
     6  C   -0.827832
     7  C   -1.124710
     8  C    0.423602
     9  C    0.917196
    10  C   -0.472915
    11  C   -0.577075
    12  O   -0.180285
    13  C    0.640618
    14  C   -0.439104
    15  C   -1.199177
    16  O   -0.203896
    17  C   -0.212334
    18  C    0.654384
    19  O    0.180836
    20  C   -1.197004
    21  O   -0.012410
    22  C   -0.532202
    23  C   -0.459427
    24  O    0.048117
    25  C    0.922464
    26  C   -1.012533
    27  C   -1.012162
    28  C   -0.743659
    29  C   -0.756600
    30  H    0.237213
    31  H    0.274121
    32  C   -1.092079
    33  H    0.202398
    34  H    0.237938
    35  H    0.280643
    36  H    0.288703
    37  H    0.248829
    38  H    0.220438
    39  H    0.278900
    40  H    0.260511
    41  H    0.256668
    42  H    0.286146
    43  H    0.270586
    44  H    0.289918
    45  H    0.282407
    46  H    0.268243
    47  H    0.231972
    48  H    0.263160
    49  H    0.268824
    50  H    0.255312
    51  H    0.230598
    52  H    0.238647
    53  H    0.267100
    54  H    0.247319
    55  H    0.313367
    56  H    0.263516
    57  H    0.259398
    58  H    0.271653
    59  H    0.258424
    60  H    0.259057
    61  H    0.257989
    62  C   -0.857081
    63  H    0.237714
    64  H    0.264891
    65  H    0.228507
 Sum of Mulliken atomic charges =   0.00000
 Mulliken charges with hydrogens summed into heavy atoms:
              1
     1  C   -0.213317
     2  C    0.795086
     3  C   -0.030282
     4  C   -0.851084
     5  C    1.100272
     6  C   -0.309250
     7  C   -1.124710
     8  C    0.423602
     9  C    0.917196
    10  C   -0.472915
    11  C   -0.577075
    12  O   -0.180285
    13  C    0.929320
    14  C    0.030163
    15  C   -0.403098
    16  O   -0.203896
    17  C    0.024879
    18  C    0.654384
    19  O    0.180836
    20  C   -0.640272
    21  O    0.277509
    22  C    0.018448
    23  C   -0.227455
    24  O    0.048117
    25  C    0.922464
    26  C   -0.225237
    27  C   -0.542917
    28  C    0.084127
    29  C    0.037967
    32  C   -0.316609
    62  C   -0.125970
 Sum of Mulliken charges with hydrogens summed into heavy atoms =   0.00000
 Electronic spatial extent (au):  <R**2>=          11464.5528
 Charge=              0.0000 electrons
 Dipole moment (field-independent basis, Debye):
    X=              4.1324    Y=              2.3719    Z=              4.7507  Tot=              6.7284
 Quadrupole moment (field-independent basis, Debye-Ang):
   XX=           -186.4857   YY=           -183.0557   ZZ=           -192.2922
   XY=             -1.4028   XZ=            -11.5046   YZ=              2.1639
 Traceless Quadrupole moment (field-independent basis, Debye-Ang):
   XX=              0.7921   YY=              4.2222   ZZ=             -5.0144
   XY=             -1.4028   XZ=            -11.5046   YZ=              2.1639
 Octapole moment (field-independent basis, Debye-Ang**2):
  XXX=             61.5274  YYY=             67.3564  ZZZ=             12.4481  XYY=              1.8823
  XXY=             -9.7827  XXZ=             -0.6016  XZZ=             30.2273  YZZ=             -2.3319
  YYZ=             16.2929  XYZ=             -0.4080
 Hexadecapole moment (field-independent basis, Debye-Ang**3):
 XXXX=          -8654.8725 YYYY=          -3778.2224 ZZZZ=          -3190.0391 XXXY=             90.7900
 XXXZ=           -123.9283 YYYX=            -37.8496 YYYZ=            -43.6121 ZZZX=            -69.5807
 ZZZY=             16.5101 XXYY=          -2083.5007 XXZZ=          -2015.5935 YYZZ=          -1168.7474
 XXYZ=             -5.1755 YYXZ=             20.0296 ZZXY=             15.0505
 N-N= 3.520023655889D+03 E-N=-1.027311583396D+04  KE= 1.381917474263D+03
 1\1\GINC-B0604\FOpt\RB3LYP\6-311+G(d)\C26H34O5\CAOFEI\13-Apr-2021\0\\#
  opt b3lyp/6-311+g(d) geom=connectivity\\Title Card Required\\0,1\C,0.
 6585463657,-2.1207142835,2.4710098264\C,0.6710554536,-0.8569600143,2.9
 017610556\C,1.1825832892,0.2664515474,2.0279476846\C,1.4302596852,-0.0
 869706675,0.5284832576\C,1.0149705843,-1.4914754366,0.015561514\C,1.15
 62315159,-2.560977175,1.1243031667\C,0.750704534,1.0696708117,-0.25419
 81337\C,-0.7014723421,0.7978030489,-0.5896657449\C,-1.2291907211,-0.42
 60803588,-0.833965289\C,-0.4035693702,-1.6126994556,-0.6068747383\C,-2
 .6581531425,-0.5620457491,-1.3228379491\O,-3.0145254498,0.0830877578,-
 2.2861052952\C,-3.5989382266,-1.5083649074,-0.5761138454\C,-5.02089257
 65,-1.5085010197,-1.1666030665\C,-3.5717932533,-1.2519719148,0.9434845
 044\O,-0.8021883765,-2.7335434859,-0.8957234164\C,0.5653735893,2.25816
 38998,0.7098680929\C,-0.6205813216,3.0271810261,0.0841920435\O,-1.4075
 056603,1.927478666,-0.5490057856\C,0.2865189258,1.536048845,2.04027079
 15\O,1.4139596754,1.3703798123,-1.4678105017\C,2.0618069505,-1.7450976
 54,-1.1010544612\C,3.3274704959,-1.120281274,-0.5274070319\O,2.8526613
 914,0.0101982031,0.266082951\C,4.4067283598,-0.6343557166,-1.471207931
 9\C,5.5936987129,0.0055928428,-0.7957589858\C,4.3412822245,-0.79997781
 68,-2.7933072531\C,-0.1969476145,3.9955638449,-1.0186321426\C,-1.56449
 95973,3.711127541,1.0659424627\H,1.4638248877,2.8771093721,0.764299958
 8\H,2.1698414866,0.5594250741,2.40782391\C,0.2484015847,-0.4864805623,
 4.3003848231\H,0.3161201067,-2.9044262588,3.1438743948\H,2.2103385651,
 -2.852334566,1.2187287706\H,0.6318460711,-3.4577172822,0.7896965666\H,
 -3.1685014795,-2.5035032035,-0.7390836845\H,-4.9463281064,-1.661061368
 4,-2.24683724\H,-5.5426494703,-2.3868598265,-0.7674640109\H,-2.5835270
 307,-1.4374682557,1.369131783\H,-4.2756111417,-1.9207999373,1.44705478
 86\H,-3.8566690215,-0.2259308507,1.1912365336\H,-0.763301733,1.2354367
 639,2.090949897\H,0.478223754,2.166333991,2.9104484453\H,2.3609078565,
 1.237995167,-1.2982489144\H,2.1706064202,-2.8096661657,-1.3137587275\H
 ,1.7601218815,-1.2394127667,-2.019430881\H,3.8012991827,-1.8178074672,
 0.1772717323\H,6.0762214382,-0.6980956355,-0.1074215716\H,5.2907622432
 ,0.868266625,-0.1959028872\H,6.3398220119,0.3332102894,-1.5220208789\H
 ,5.1486832872,-0.4691842363,-3.4394089884\H,3.5001101859,-1.2727910422
 ,-3.2863374242\H,-1.0786764841,4.3735728661,-1.5409353387\H,0.33155490
 89,4.8488495545,-0.5833124974\H,0.4580189791,3.511977292,-1.741232876\
 H,-1.0359528724,4.5054467188,1.6003044521\H,-1.9746471364,3.0177578908
 ,1.800603871\H,-2.3997278379,4.165278105,0.5287157255\H,-0.0254993868,
 -1.3716081725,4.8779316667\H,1.0584270948,0.0246480002,4.8351387015\H,
 -0.6086653493,0.1949120488,4.3091894997\C,-5.8629976381,-0.2572723402,
 -0.8945931897\H,-6.8422807841,-0.346727101,-1.3741495649\H,-5.38372714
 98,0.6397052488,-1.29096593\H,-6.0422764251,-0.1054878861,0.1740833062
 \\Version=EM64L-G09RevB.01\State=1-A\HF=-1387.6476462\RMSD=6.640e-09\R
 MSF=5.140e-06\Dipole=1.625799,0.8498903,1.9083916\Quadrupole=0.7165522
 ,3.0822679,-3.7988201,-0.7843076,-8.4982552,1.9565904\PG=C01 [X(C26H34
 O5)]\\@


 Not by the face shall a man be known, but by the mask.
                               -- Karen Blixen
 Job cpu time:  1 days  9 hours 14 minutes 47.1 seconds.
 File lengths (MBytes):  RWF=    372 Int=      0 D2E=      0 Chk=     38 Scr=      1
 Normal termination of Gaussian 09 at Tue Apr 13 20:07:05 2021.
