 Entering Gaussian System, Link 0=g09
 Initial command:
 /public/software/g09/g09/l1.exe /tmp/Gau-1383.inp -scrdir=/tmp/
 Entering Link 1 = /public/software/g09/g09/l1.exe PID=      1384.
  
 Copyright (c) 1988,1990,1992,1993,1995,1998,2003,2009,2010,
            Gaussian, Inc.  All Rights Reserved.
  
 This is part of the Gaussian(R) 09 program.  It is based on
 the Gaussian(R) 03 system (copyright 2003, Gaussian, Inc.),
 the Gaussian(R) 98 system (copyright 1998, Gaussian, Inc.),
 the Gaussian(R) 94 system (copyright 1995, Gaussian, Inc.),
 the Gaussian 92(TM) system (copyright 1992, Gaussian, Inc.),
 the Gaussian 90(TM) system (copyright 1990, Gaussian, Inc.),
 the Gaussian 88(TM) system (copyright 1988, Gaussian, Inc.),
 the Gaussian 86(TM) system (copyright 1986, Carnegie Mellon
 University), and the Gaussian 82(TM) system (copyright 1983,
 Carnegie Mellon University). Gaussian is a federally registered
 trademark of Gaussian, Inc.
  
 This software contains proprietary and confidential information,
 including trade secrets, belonging to Gaussian, Inc.
  
 This software is provided under written license and may be
 used, copied, transmitted, or stored only in accord with that
 written license.
  
 The following legend is applicable only to US Government
 contracts under FAR:
  
                    RESTRICTED RIGHTS LEGEND
  
 Use, reproduction and disclosure by the US Government is
 subject to restrictions as set forth in subparagraphs (a)
 and (c) of the Commercial Computer Software - Restricted
 Rights clause in FAR 52.227-19.
  
 Gaussian, Inc.
 340 Quinnipiac St., Bldg. 40, Wallingford CT 06492
  
  
 ---------------------------------------------------------------
 Warning -- This program may not be used in any manner that
 competes with the business of Gaussian, Inc. or will provide
 assistance to any competitor of Gaussian, Inc.  The licensee
 of this program is prohibited from giving any competitor of
 Gaussian, Inc. access to this program.  By using this program,
 the user acknowledges that Gaussian, Inc. is engaged in the
 business of creating and licensing software in the field of
 computational chemistry and represents and warrants to the
 licensee that it is not a competitor of Gaussian, Inc. and that
 it will not use this program in any manner prohibited above.
 ---------------------------------------------------------------
  

 Cite this work as:
 Gaussian 09, Revision B.01,
 M. J. Frisch, G. W. Trucks, H. B. Schlegel, G. E. Scuseria, 
 M. A. Robb, J. R. Cheeseman, G. Scalmani, V. Barone, B. Mennucci, 
 G. A. Petersson, H. Nakatsuji, M. Caricato, X. Li, H. P. Hratchian, 
 A. F. Izmaylov, J. Bloino, G. Zheng, J. L. Sonnenberg, M. Hada, 
 M. Ehara, K. Toyota, R. Fukuda, J. Hasegawa, M. Ishida, T. Nakajima, 
 Y. Honda, O. Kitao, H. Nakai, T. Vreven, J. A. Montgomery, Jr., 
 J. E. Peralta, F. Ogliaro, M. Bearpark, J. J. Heyd, E. Brothers, 
 K. N. Kudin, V. N. Staroverov, T. Keith, R. Kobayashi, J. Normand, 
 K. Raghavachari, A. Rendell, J. C. Burant, S. S. Iyengar, J. Tomasi, 
 M. Cossi, N. Rega, J. M. Millam, M. Klene, J. E. Knox, J. B. Cross, 
 V. Bakken, C. Adamo, J. Jaramillo, R. Gomperts, R. E. Stratmann, 
 O. Yazyev, A. J. Austin, R. Cammi, C. Pomelli, J. W. Ochterski, 
 R. L. Martin, K. Morokuma, V. G. Zakrzewski, G. A. Voth, 
 P. Salvador, J. J. Dannenberg, S. Dapprich, A. D. Daniels, 
 O. Farkas, J. B. Foresman, J. V. Ortiz, J. Cioslowski, 
 and D. J. Fox, Gaussian, Inc., Wallingford CT, 2010.
 
 ******************************************
 Gaussian 09:  EM64L-G09RevB.01 12-Aug-2010
                13-Apr-2021 
 ******************************************
 %mem=600MW
 %nprocshared=10
 Will use up to   10 processors via shared memory.
 ----------------------------------------
 # opt b3lyp/6-311+g(d) geom=connectivity
 ----------------------------------------
 1/14=-1,18=20,19=15,26=3,38=1,57=2/1,3;
 2/9=110,12=2,17=6,18=5,40=1/2;
 3/5=4,6=6,7=11,11=2,16=1,25=1,30=1,71=1,74=-5/1,2,3;
 4//1;
 5/5=2,38=5/2;
 6/7=2,8=2,9=2,10=2,28=1/1;
 7//1,2,3,16;
 1/14=-1,18=20,19=15/3(2);
 2/9=110/2;
 99//99;
 2/9=110/2;
 3/5=4,6=6,7=11,11=2,16=1,25=1,30=1,71=1,74=-5/1,2,3;
 4/5=5,16=3/1;
 5/5=2,38=5/2;
 7//1,2,3,16;
 1/14=-1,18=20,19=15/3(-5);
 2/9=110/2;
 6/7=2,8=2,9=2,10=2,19=2,28=1/1;
 99/9=1/99;
 -------------------
 Title Card Required
 -------------------
 Symbolic Z-matrix:
 Charge =  0 Multiplicity = 1
 C                     1.69161   0.69417   3.107 
 C                     1.59517   1.82524   2.39878 
 C                     1.68319   1.81744   0.88648 
 C                     1.57483   0.41718   0.20631 
 C                     1.29019  -0.82466   1.09199 
 C                     1.90082  -0.66795   2.50586 
 C                     0.52086   0.61112  -0.91726 
 C                    -0.89481   0.36215  -0.44559 
 C                    -1.2517   -0.52116   0.51217 
 C                    -0.19965  -1.2322    1.25404 
 C                    -2.689    -0.70862   0.95382 
 O                    -3.01408  -0.4314    2.09215 
 C                    -3.66705  -1.28326  -0.06888 
 C                    -5.12385  -1.078     0.37714 
 C                    -3.30555  -2.76772  -0.3028 
 O                    -0.46755  -2.16063   2.00587 
 C                     0.41259   2.12296  -1.21617 
 C                    -1.01626   2.25862  -1.79684 
 O                    -1.75423   1.1887   -1.06916 
 C                     0.63562   2.73023   0.18419 
 O                     0.75511  -0.22868  -2.03264 
 C                     2.02814  -1.9425    0.31144 
 C                     3.26963  -1.21538  -0.22583 
 O                     2.83892   0.14001  -0.44888 
 C                     3.8892   -1.81153  -1.47206 
 C                     4.24673  -3.27415  -1.37302 
 C                     4.14813  -1.07967  -2.56077 
 C                    -1.08454   1.94324  -3.29296 
 C                    -1.74558   3.56306  -1.48538 
 H                     1.17328   2.45315  -1.93043 
 H                     2.68083   2.18248   0.6036 
 C                     1.46741   3.17255   3.06592 
 H                     1.65726   0.74763   4.19419 
 H                     2.98     -0.88069   2.46637 
 H                     1.46139  -1.44504   3.13831 
 H                    -3.49683  -0.74483  -1.0127 
 H                    -5.30243  -1.66062   1.28889 
 H                    -5.25381  -0.02826   0.66711 
 H                    -3.93249  -3.19882  -1.08956 
 H                    -3.45246  -3.34932   0.61416 
 H                    -2.26064  -2.8811   -0.60893 
 H                     0.96006   3.77393   0.14363 
 H                    -0.29989   2.70592   0.75297 
 H                     1.72697  -0.26535  -2.12796 
 H                     1.41291  -2.30003  -0.52037 
 H                     2.26903  -2.7918    0.95593 
 H                     4.04845  -1.19613   0.55446 
 H                     4.9005   -3.46386  -0.51064 
 H                     3.35619  -3.9007   -1.23659 
 H                     4.76754  -3.61495  -2.27222 
 H                     4.6067   -1.52377  -3.4402 
 H                     3.93632  -0.01598  -2.59853 
 H                    -2.12998   1.87259  -3.6109 
 H                    -0.60778   2.74678  -3.86623 
 H                    -0.57773   1.00325  -3.51828 
 H                    -1.22737   4.40255  -1.96204 
 H                    -2.76571   3.52506  -1.88045 
 H                    -1.80502   3.75531  -0.41172 
 H                     1.48431   3.07511   4.15567 
 H                     2.29098   3.83972   2.77317 
 H                     0.53628   3.68451   2.79105 
 C                    -6.1595   -1.44082  -0.69276 
 H                    -7.17347  -1.2192   -0.34064 
 H                    -5.99764  -0.86878  -1.61545 
 H                    -6.13081  -2.50479  -0.95338 
 

 GradGradGradGradGradGradGradGradGradGradGradGradGradGradGradGradGradGrad
 Berny optimization.
 Initialization pass.
                           ----------------------------
                           !    Initial Parameters    !
                           ! (Angstroms and Degrees)  !
 --------------------------                            --------------------------
 ! Name  Definition              Value          Derivative Info.                !
 --------------------------------------------------------------------------------
 ! R1    R(1,2)                  1.338          estimate D2E/DX2                !
 ! R2    R(1,6)                  1.5035         estimate D2E/DX2                !
 ! R3    R(1,33)                 1.089          estimate D2E/DX2                !
 ! R4    R(2,3)                  1.5149         estimate D2E/DX2                !
 ! R5    R(2,32)                 1.5089         estimate D2E/DX2                !
 ! R6    R(3,4)                  1.5605         estimate D2E/DX2                !
 ! R7    R(3,20)                 1.5569         estimate D2E/DX2                !
 ! R8    R(3,31)                 1.0993         estimate D2E/DX2                !
 ! R9    R(4,5)                  1.5517         estimate D2E/DX2                !
 ! R10   R(4,7)                  1.5527         estimate D2E/DX2                !
 ! R11   R(4,24)                 1.4505         estimate D2E/DX2                !
 ! R12   R(5,6)                  1.5481         estimate D2E/DX2                !
 ! R13   R(5,10)                 1.553          estimate D2E/DX2                !
 ! R14   R(5,22)                 1.5503         estimate D2E/DX2                !
 ! R15   R(6,34)                 1.1007         estimate D2E/DX2                !
 ! R16   R(6,35)                 1.0941         estimate D2E/DX2                !
 ! R17   R(7,8)                  1.5128         estimate D2E/DX2                !
 ! R18   R(7,17)                 1.5449         estimate D2E/DX2                !
 ! R19   R(7,21)                 1.4157         estimate D2E/DX2                !
 ! R20   R(8,9)                  1.3509         estimate D2E/DX2                !
 ! R21   R(8,19)                 1.3456         estimate D2E/DX2                !
 ! R22   R(9,10)                 1.4706         estimate D2E/DX2                !
 ! R23   R(9,11)                 1.5153         estimate D2E/DX2                !
 ! R24   R(10,16)                1.2243         estimate D2E/DX2                !
 ! R25   R(11,12)                1.2159         estimate D2E/DX2                !
 ! R26   R(11,13)                1.5273         estimate D2E/DX2                !
 ! R27   R(13,14)                1.5373         estimate D2E/DX2                !
 ! R28   R(13,15)                1.5456         estimate D2E/DX2                !
 ! R29   R(13,36)                1.0999         estimate D2E/DX2                !
 ! R30   R(14,37)                1.0966         estimate D2E/DX2                !
 ! R31   R(14,38)                1.0968         estimate D2E/DX2                !
 ! R32   R(14,62)                1.5326         estimate D2E/DX2                !
 ! R33   R(15,39)                1.0945         estimate D2E/DX2                !
 ! R34   R(15,40)                1.0957         estimate D2E/DX2                !
 ! R35   R(15,41)                1.0947         estimate D2E/DX2                !
 ! R36   R(17,18)                1.5483         estimate D2E/DX2                !
 ! R37   R(17,20)                1.5426         estimate D2E/DX2                !
 ! R38   R(17,30)                1.0945         estimate D2E/DX2                !
 ! R39   R(18,19)                1.4896         estimate D2E/DX2                !
 ! R40   R(18,28)                1.5305         estimate D2E/DX2                !
 ! R41   R(18,29)                1.5266         estimate D2E/DX2                !
 ! R42   R(20,42)                1.0937         estimate D2E/DX2                !
 ! R43   R(20,43)                1.0951         estimate D2E/DX2                !
 ! R44   R(21,44)                0.9772         estimate D2E/DX2                !
 ! R45   R(22,23)                1.5358         estimate D2E/DX2                !
 ! R46   R(22,45)                1.0946         estimate D2E/DX2                !
 ! R47   R(22,46)                1.093          estimate D2E/DX2                !
 ! R48   R(23,24)                1.4396         estimate D2E/DX2                !
 ! R49   R(23,25)                1.514          estimate D2E/DX2                !
 ! R50   R(23,47)                1.1026         estimate D2E/DX2                !
 ! R51   R(25,26)                1.5089         estimate D2E/DX2                !
 ! R52   R(25,27)                1.3372         estimate D2E/DX2                !
 ! R53   R(26,48)                1.0987         estimate D2E/DX2                !
 ! R54   R(26,49)                1.0974         estimate D2E/DX2                !
 ! R55   R(26,50)                1.0936         estimate D2E/DX2                !
 ! R56   R(27,51)                1.0867         estimate D2E/DX2                !
 ! R57   R(27,52)                1.0852         estimate D2E/DX2                !
 ! R58   R(28,53)                1.095          estimate D2E/DX2                !
 ! R59   R(28,54)                1.0962         estimate D2E/DX2                !
 ! R60   R(28,55)                1.0914         estimate D2E/DX2                !
 ! R61   R(29,56)                1.0957         estimate D2E/DX2                !
 ! R62   R(29,57)                1.0946         estimate D2E/DX2                !
 ! R63   R(29,58)                1.0924         estimate D2E/DX2                !
 ! R64   R(32,59)                1.0942         estimate D2E/DX2                !
 ! R65   R(32,60)                1.0996         estimate D2E/DX2                !
 ! R66   R(32,61)                1.0976         estimate D2E/DX2                !
 ! R67   R(62,63)                1.096          estimate D2E/DX2                !
 ! R68   R(62,64)                1.0976         estimate D2E/DX2                !
 ! R69   R(62,65)                1.0958         estimate D2E/DX2                !
 ! A1    A(2,1,6)              124.3507         estimate D2E/DX2                !
 ! A2    A(2,1,33)             118.9891         estimate D2E/DX2                !
 ! A3    A(6,1,33)             116.6162         estimate D2E/DX2                !
 ! A4    A(1,2,3)              121.3237         estimate D2E/DX2                !
 ! A5    A(1,2,32)             121.7971         estimate D2E/DX2                !
 ! A6    A(3,2,32)             116.8026         estimate D2E/DX2                !
 ! A7    A(2,3,4)              115.8314         estimate D2E/DX2                !
 ! A8    A(2,3,20)             114.0927         estimate D2E/DX2                !
 ! A9    A(2,3,31)             107.9324         estimate D2E/DX2                !
 ! A10   A(4,3,20)             106.425          estimate D2E/DX2                !
 ! A11   A(4,3,31)             104.4075         estimate D2E/DX2                !
 ! A12   A(20,3,31)            107.4489         estimate D2E/DX2                !
 ! A13   A(3,4,5)              118.8226         estimate D2E/DX2                !
 ! A14   A(3,4,7)              104.505          estimate D2E/DX2                !
 ! A15   A(3,4,24)             107.9285         estimate D2E/DX2                !
 ! A16   A(5,4,7)              112.8603         estimate D2E/DX2                !
 ! A17   A(5,4,24)             105.3531         estimate D2E/DX2                !
 ! A18   A(7,4,24)             106.7722         estimate D2E/DX2                !
 ! A19   A(4,5,6)              111.5886         estimate D2E/DX2                !
 ! A20   A(4,5,10)             116.4587         estimate D2E/DX2                !
 ! A21   A(4,5,22)             101.6758         estimate D2E/DX2                !
 ! A22   A(6,5,10)             108.0393         estimate D2E/DX2                !
 ! A23   A(6,5,22)             110.1862         estimate D2E/DX2                !
 ! A24   A(10,5,22)            108.6606         estimate D2E/DX2                !
 ! A25   A(1,6,5)              113.7031         estimate D2E/DX2                !
 ! A26   A(1,6,34)             109.0199         estimate D2E/DX2                !
 ! A27   A(1,6,35)             110.8833         estimate D2E/DX2                !
 ! A28   A(5,6,34)             109.5377         estimate D2E/DX2                !
 ! A29   A(5,6,35)             107.3152         estimate D2E/DX2                !
 ! A30   A(34,6,35)            106.0971         estimate D2E/DX2                !
 ! A31   A(4,7,8)              112.8954         estimate D2E/DX2                !
 ! A32   A(4,7,17)             108.0481         estimate D2E/DX2                !
 ! A33   A(4,7,21)             112.5635         estimate D2E/DX2                !
 ! A34   A(8,7,17)              98.9624         estimate D2E/DX2                !
 ! A35   A(8,7,21)             107.6294         estimate D2E/DX2                !
 ! A36   A(17,7,21)            116.0822         estimate D2E/DX2                !
 ! A37   A(7,8,9)              125.1611         estimate D2E/DX2                !
 ! A38   A(7,8,19)             110.6166         estimate D2E/DX2                !
 ! A39   A(9,8,19)             124.1575         estimate D2E/DX2                !
 ! A40   A(8,9,10)             118.9995         estimate D2E/DX2                !
 ! A41   A(8,9,11)             122.5564         estimate D2E/DX2                !
 ! A42   A(10,9,11)            118.146          estimate D2E/DX2                !
 ! A43   A(5,10,9)             120.4476         estimate D2E/DX2                !
 ! A44   A(5,10,16)            118.2268         estimate D2E/DX2                !
 ! A45   A(9,10,16)            121.3242         estimate D2E/DX2                !
 ! A46   A(9,11,12)            119.8862         estimate D2E/DX2                !
 ! A47   A(9,11,13)            117.3096         estimate D2E/DX2                !
 ! A48   A(12,11,13)           122.7844         estimate D2E/DX2                !
 ! A49   A(11,13,14)           111.2429         estimate D2E/DX2                !
 ! A50   A(11,13,15)           108.2348         estimate D2E/DX2                !
 ! A51   A(11,13,36)           106.9364         estimate D2E/DX2                !
 ! A52   A(14,13,15)           113.1902         estimate D2E/DX2                !
 ! A53   A(14,13,36)           109.2847         estimate D2E/DX2                !
 ! A54   A(15,13,36)           107.7041         estimate D2E/DX2                !
 ! A55   A(13,14,37)           108.9404         estimate D2E/DX2                !
 ! A56   A(13,14,38)           108.4685         estimate D2E/DX2                !
 ! A57   A(13,14,62)           113.9666         estimate D2E/DX2                !
 ! A58   A(37,14,38)           105.6278         estimate D2E/DX2                !
 ! A59   A(37,14,62)           110.1567         estimate D2E/DX2                !
 ! A60   A(38,14,62)           109.3343         estimate D2E/DX2                !
 ! A61   A(13,15,39)           110.6773         estimate D2E/DX2                !
 ! A62   A(13,15,40)           110.5951         estimate D2E/DX2                !
 ! A63   A(13,15,41)           111.4099         estimate D2E/DX2                !
 ! A64   A(39,15,40)           108.4023         estimate D2E/DX2                !
 ! A65   A(39,15,41)           107.7546         estimate D2E/DX2                !
 ! A66   A(40,15,41)           107.8798         estimate D2E/DX2                !
 ! A67   A(7,17,18)            102.8847         estimate D2E/DX2                !
 ! A68   A(7,17,20)            101.5056         estimate D2E/DX2                !
 ! A69   A(7,17,30)            111.8881         estimate D2E/DX2                !
 ! A70   A(18,17,20)           116.0658         estimate D2E/DX2                !
 ! A71   A(18,17,30)           111.7299         estimate D2E/DX2                !
 ! A72   A(20,17,30)           111.9123         estimate D2E/DX2                !
 ! A73   A(17,18,19)           102.1843         estimate D2E/DX2                !
 ! A74   A(17,18,28)           112.9374         estimate D2E/DX2                !
 ! A75   A(17,18,29)           116.0558         estimate D2E/DX2                !
 ! A76   A(19,18,28)           107.9037         estimate D2E/DX2                !
 ! A77   A(19,18,29)           106.1047         estimate D2E/DX2                !
 ! A78   A(28,18,29)           110.7444         estimate D2E/DX2                !
 ! A79   A(8,19,18)            110.5587         estimate D2E/DX2                !
 ! A80   A(3,20,17)            106.0208         estimate D2E/DX2                !
 ! A81   A(3,20,42)            112.1246         estimate D2E/DX2                !
 ! A82   A(3,20,43)            109.1172         estimate D2E/DX2                !
 ! A83   A(17,20,42)           112.637          estimate D2E/DX2                !
 ! A84   A(17,20,43)           109.8307         estimate D2E/DX2                !
 ! A85   A(42,20,43)           107.0887         estimate D2E/DX2                !
 ! A86   A(7,21,44)            105.288          estimate D2E/DX2                !
 ! A87   A(5,22,23)            102.6824         estimate D2E/DX2                !
 ! A88   A(5,22,45)            110.5214         estimate D2E/DX2                !
 ! A89   A(5,22,46)            111.6111         estimate D2E/DX2                !
 ! A90   A(23,22,45)           110.0681         estimate D2E/DX2                !
 ! A91   A(23,22,46)           113.3286         estimate D2E/DX2                !
 ! A92   A(45,22,46)           108.5506         estimate D2E/DX2                !
 ! A93   A(22,23,24)           104.958          estimate D2E/DX2                !
 ! A94   A(22,23,25)           115.6153         estimate D2E/DX2                !
 ! A95   A(22,23,47)           109.3708         estimate D2E/DX2                !
 ! A96   A(24,23,25)           111.446          estimate D2E/DX2                !
 ! A97   A(24,23,47)           107.7304         estimate D2E/DX2                !
 ! A98   A(25,23,47)           107.4768         estimate D2E/DX2                !
 ! A99   A(4,24,23)            111.7564         estimate D2E/DX2                !
 ! A100  A(23,25,26)           115.1254         estimate D2E/DX2                !
 ! A101  A(23,25,27)           122.2702         estimate D2E/DX2                !
 ! A102  A(26,25,27)           122.5532         estimate D2E/DX2                !
 ! A103  A(25,26,48)           111.0931         estimate D2E/DX2                !
 ! A104  A(25,26,49)           111.6728         estimate D2E/DX2                !
 ! A105  A(25,26,50)           111.1586         estimate D2E/DX2                !
 ! A106  A(48,26,49)           106.6613         estimate D2E/DX2                !
 ! A107  A(48,26,50)           107.9504         estimate D2E/DX2                !
 ! A108  A(49,26,50)           108.1055         estimate D2E/DX2                !
 ! A109  A(25,27,51)           121.1278         estimate D2E/DX2                !
 ! A110  A(25,27,52)           121.8029         estimate D2E/DX2                !
 ! A111  A(51,27,52)           117.0498         estimate D2E/DX2                !
 ! A112  A(18,28,53)           109.86           estimate D2E/DX2                !
 ! A113  A(18,28,54)           109.9234         estimate D2E/DX2                !
 ! A114  A(18,28,55)           111.012          estimate D2E/DX2                !
 ! A115  A(53,28,54)           108.1001         estimate D2E/DX2                !
 ! A116  A(53,28,55)           109.1369         estimate D2E/DX2                !
 ! A117  A(54,28,55)           108.7478         estimate D2E/DX2                !
 ! A118  A(18,29,56)           109.8754         estimate D2E/DX2                !
 ! A119  A(18,29,57)           109.9947         estimate D2E/DX2                !
 ! A120  A(18,29,58)           112.1425         estimate D2E/DX2                !
 ! A121  A(56,29,57)           108.0811         estimate D2E/DX2                !
 ! A122  A(56,29,58)           108.5715         estimate D2E/DX2                !
 ! A123  A(57,29,58)           108.0678         estimate D2E/DX2                !
 ! A124  A(2,32,59)            111.0708         estimate D2E/DX2                !
 ! A125  A(2,32,60)            111.1399         estimate D2E/DX2                !
 ! A126  A(2,32,61)            112.1858         estimate D2E/DX2                !
 ! A127  A(59,32,60)           107.9148         estimate D2E/DX2                !
 ! A128  A(59,32,61)           107.7012         estimate D2E/DX2                !
 ! A129  A(60,32,61)           106.6018         estimate D2E/DX2                !
 ! A130  A(14,62,63)           110.672          estimate D2E/DX2                !
 ! A131  A(14,62,64)           111.3346         estimate D2E/DX2                !
 ! A132  A(14,62,65)           112.2221         estimate D2E/DX2                !
 ! A133  A(63,62,64)           107.5243         estimate D2E/DX2                !
 ! A134  A(63,62,65)           107.275          estimate D2E/DX2                !
 ! A135  A(64,62,65)           107.5914         estimate D2E/DX2                !
 ! D1    D(6,1,2,3)              0.429          estimate D2E/DX2                !
 ! D2    D(6,1,2,32)          -176.2888         estimate D2E/DX2                !
 ! D3    D(33,1,2,3)           177.9292         estimate D2E/DX2                !
 ! D4    D(33,1,2,32)            1.2114         estimate D2E/DX2                !
 ! D5    D(2,1,6,5)            -30.2353         estimate D2E/DX2                !
 ! D6    D(2,1,6,34)            92.29           estimate D2E/DX2                !
 ! D7    D(2,1,6,35)          -151.26           estimate D2E/DX2                !
 ! D8    D(33,1,6,5)           152.2104         estimate D2E/DX2                !
 ! D9    D(33,1,6,34)          -85.2643         estimate D2E/DX2                !
 ! D10   D(33,1,6,35)           31.1858         estimate D2E/DX2                !
 ! D11   D(1,2,3,4)             12.9412         estimate D2E/DX2                !
 ! D12   D(1,2,3,20)           137.0385         estimate D2E/DX2                !
 ! D13   D(1,2,3,31)          -103.624          estimate D2E/DX2                !
 ! D14   D(32,2,3,4)          -170.184          estimate D2E/DX2                !
 ! D15   D(32,2,3,20)          -46.0867         estimate D2E/DX2                !
 ! D16   D(32,2,3,31)           73.2508         estimate D2E/DX2                !
 ! D17   D(1,2,32,59)            0.9711         estimate D2E/DX2                !
 ! D18   D(1,2,32,60)          121.1303         estimate D2E/DX2                !
 ! D19   D(1,2,32,61)         -119.6269         estimate D2E/DX2                !
 ! D20   D(3,2,32,59)         -175.8878         estimate D2E/DX2                !
 ! D21   D(3,2,32,60)          -55.7286         estimate D2E/DX2                !
 ! D22   D(3,2,32,61)           63.5142         estimate D2E/DX2                !
 ! D23   D(2,3,4,5)              4.2332         estimate D2E/DX2                !
 ! D24   D(2,3,4,7)            131.1301         estimate D2E/DX2                !
 ! D25   D(2,3,4,24)          -115.4802         estimate D2E/DX2                !
 ! D26   D(20,3,4,5)          -123.7575         estimate D2E/DX2                !
 ! D27   D(20,3,4,7)             3.1394         estimate D2E/DX2                !
 ! D28   D(20,3,4,24)          116.5292         estimate D2E/DX2                !
 ! D29   D(31,3,4,5)           122.7584         estimate D2E/DX2                !
 ! D30   D(31,3,4,7)          -110.3447         estimate D2E/DX2                !
 ! D31   D(31,3,4,24)            3.045          estimate D2E/DX2                !
 ! D32   D(2,3,20,17)         -153.7924         estimate D2E/DX2                !
 ! D33   D(2,3,20,42)           82.9083         estimate D2E/DX2                !
 ! D34   D(2,3,20,43)          -35.5581         estimate D2E/DX2                !
 ! D35   D(4,3,20,17)          -24.7841         estimate D2E/DX2                !
 ! D36   D(4,3,20,42)         -148.0834         estimate D2E/DX2                !
 ! D37   D(4,3,20,43)           93.4502         estimate D2E/DX2                !
 ! D38   D(31,3,20,17)          86.5973         estimate D2E/DX2                !
 ! D39   D(31,3,20,42)         -36.702          estimate D2E/DX2                !
 ! D40   D(31,3,20,43)        -155.1684         estimate D2E/DX2                !
 ! D41   D(3,4,5,6)            -31.6209         estimate D2E/DX2                !
 ! D42   D(3,4,5,10)            93.0546         estimate D2E/DX2                !
 ! D43   D(3,4,5,22)          -149.0542         estimate D2E/DX2                !
 ! D44   D(7,4,5,6)           -154.4572         estimate D2E/DX2                !
 ! D45   D(7,4,5,10)           -29.7817         estimate D2E/DX2                !
 ! D46   D(7,4,5,22)            88.1095         estimate D2E/DX2                !
 ! D47   D(24,4,5,6)            89.4063         estimate D2E/DX2                !
 ! D48   D(24,4,5,10)         -145.9182         estimate D2E/DX2                !
 ! D49   D(24,4,5,22)          -28.027          estimate D2E/DX2                !
 ! D50   D(3,4,7,8)            -88.6707         estimate D2E/DX2                !
 ! D51   D(3,4,7,17)            19.7187         estimate D2E/DX2                !
 ! D52   D(3,4,7,21)           149.223          estimate D2E/DX2                !
 ! D53   D(5,4,7,8)             41.8325         estimate D2E/DX2                !
 ! D54   D(5,4,7,17)           150.2219         estimate D2E/DX2                !
 ! D55   D(5,4,7,21)           -80.2738         estimate D2E/DX2                !
 ! D56   D(24,4,7,8)           157.1204         estimate D2E/DX2                !
 ! D57   D(24,4,7,17)          -94.4902         estimate D2E/DX2                !
 ! D58   D(24,4,7,21)           35.0141         estimate D2E/DX2                !
 ! D59   D(3,4,24,23)          136.637          estimate D2E/DX2                !
 ! D60   D(5,4,24,23)            8.7367         estimate D2E/DX2                !
 ! D61   D(7,4,24,23)         -111.4959         estimate D2E/DX2                !
 ! D62   D(4,5,6,1)             43.3388         estimate D2E/DX2                !
 ! D63   D(4,5,6,34)           -78.9009         estimate D2E/DX2                !
 ! D64   D(4,5,6,35)           166.3402         estimate D2E/DX2                !
 ! D65   D(10,5,6,1)           -85.9188         estimate D2E/DX2                !
 ! D66   D(10,5,6,34)          151.8415         estimate D2E/DX2                !
 ! D67   D(10,5,6,35)           37.0826         estimate D2E/DX2                !
 ! D68   D(22,5,6,1)           155.5093         estimate D2E/DX2                !
 ! D69   D(22,5,6,34)           33.2696         estimate D2E/DX2                !
 ! D70   D(22,5,6,35)          -81.4893         estimate D2E/DX2                !
 ! D71   D(4,5,10,9)             4.4673         estimate D2E/DX2                !
 ! D72   D(4,5,10,16)         -175.9515         estimate D2E/DX2                !
 ! D73   D(6,5,10,9)           130.9314         estimate D2E/DX2                !
 ! D74   D(6,5,10,16)          -49.4874         estimate D2E/DX2                !
 ! D75   D(22,5,10,9)         -109.5284         estimate D2E/DX2                !
 ! D76   D(22,5,10,16)          70.0528         estimate D2E/DX2                !
 ! D77   D(4,5,22,23)           36.165          estimate D2E/DX2                !
 ! D78   D(4,5,22,45)          -81.2081         estimate D2E/DX2                !
 ! D79   D(4,5,22,46)          157.8834         estimate D2E/DX2                !
 ! D80   D(6,5,22,23)          -82.2776         estimate D2E/DX2                !
 ! D81   D(6,5,22,45)          160.3493         estimate D2E/DX2                !
 ! D82   D(6,5,22,46)           39.4409         estimate D2E/DX2                !
 ! D83   D(10,5,22,23)         159.5319         estimate D2E/DX2                !
 ! D84   D(10,5,22,45)          42.1588         estimate D2E/DX2                !
 ! D85   D(10,5,22,46)         -78.7496         estimate D2E/DX2                !
 ! D86   D(4,7,8,9)            -31.8942         estimate D2E/DX2                !
 ! D87   D(4,7,8,19)           145.2707         estimate D2E/DX2                !
 ! D88   D(17,7,8,9)          -145.9154         estimate D2E/DX2                !
 ! D89   D(17,7,8,19)           31.2496         estimate D2E/DX2                !
 ! D90   D(21,7,8,9)            92.9436         estimate D2E/DX2                !
 ! D91   D(21,7,8,19)          -89.8915         estimate D2E/DX2                !
 ! D92   D(4,7,17,18)         -154.9511         estimate D2E/DX2                !
 ! D93   D(4,7,17,20)          -34.5162         estimate D2E/DX2                !
 ! D94   D(4,7,17,30)           84.9694         estimate D2E/DX2                !
 ! D95   D(8,7,17,18)          -37.2            estimate D2E/DX2                !
 ! D96   D(8,7,17,20)           83.2349         estimate D2E/DX2                !
 ! D97   D(8,7,17,30)         -157.2795         estimate D2E/DX2                !
 ! D98   D(21,7,17,18)          77.5442         estimate D2E/DX2                !
 ! D99   D(21,7,17,20)        -162.0209         estimate D2E/DX2                !
 ! D100  D(21,7,17,30)         -42.5353         estimate D2E/DX2                !
 ! D101  D(4,7,21,44)          -37.1121         estimate D2E/DX2                !
 ! D102  D(8,7,21,44)         -162.1489         estimate D2E/DX2                !
 ! D103  D(17,7,21,44)          88.1231         estimate D2E/DX2                !
 ! D104  D(7,8,9,10)             5.4696         estimate D2E/DX2                !
 ! D105  D(7,8,9,11)           179.0783         estimate D2E/DX2                !
 ! D106  D(19,8,9,10)         -171.3234         estimate D2E/DX2                !
 ! D107  D(19,8,9,11)            2.2853         estimate D2E/DX2                !
 ! D108  D(7,8,19,18)          -11.8167         estimate D2E/DX2                !
 ! D109  D(9,8,19,18)          165.3824         estimate D2E/DX2                !
 ! D110  D(8,9,10,5)             9.0297         estimate D2E/DX2                !
 ! D111  D(8,9,10,16)         -170.5383         estimate D2E/DX2                !
 ! D112  D(11,9,10,5)         -164.862          estimate D2E/DX2                !
 ! D113  D(11,9,10,16)          15.57           estimate D2E/DX2                !
 ! D114  D(8,9,11,12)         -115.724          estimate D2E/DX2                !
 ! D115  D(8,9,11,13)           65.8469         estimate D2E/DX2                !
 ! D116  D(10,9,11,12)          57.9366         estimate D2E/DX2                !
 ! D117  D(10,9,11,13)        -120.4925         estimate D2E/DX2                !
 ! D118  D(9,11,13,14)        -165.1973         estimate D2E/DX2                !
 ! D119  D(9,11,13,15)          69.8499         estimate D2E/DX2                !
 ! D120  D(9,11,13,36)         -45.9368         estimate D2E/DX2                !
 ! D121  D(12,11,13,14)         16.4229         estimate D2E/DX2                !
 ! D122  D(12,11,13,15)       -108.53           estimate D2E/DX2                !
 ! D123  D(12,11,13,36)        135.6833         estimate D2E/DX2                !
 ! D124  D(11,13,14,37)        -65.1738         estimate D2E/DX2                !
 ! D125  D(11,13,14,38)         49.3381         estimate D2E/DX2                !
 ! D126  D(11,13,14,62)        171.3744         estimate D2E/DX2                !
 ! D127  D(15,13,14,37)         56.9512         estimate D2E/DX2                !
 ! D128  D(15,13,14,38)        171.4631         estimate D2E/DX2                !
 ! D129  D(15,13,14,62)        -66.5007         estimate D2E/DX2                !
 ! D130  D(36,13,14,37)        176.9772         estimate D2E/DX2                !
 ! D131  D(36,13,14,38)        -68.5108         estimate D2E/DX2                !
 ! D132  D(36,13,14,62)         53.5254         estimate D2E/DX2                !
 ! D133  D(11,13,15,39)       -175.4988         estimate D2E/DX2                !
 ! D134  D(11,13,15,40)         64.35           estimate D2E/DX2                !
 ! D135  D(11,13,15,41)        -55.6258         estimate D2E/DX2                !
 ! D136  D(14,13,15,39)         60.7112         estimate D2E/DX2                !
 ! D137  D(14,13,15,40)        -59.44           estimate D2E/DX2                !
 ! D138  D(14,13,15,41)       -179.4158         estimate D2E/DX2                !
 ! D139  D(36,13,15,39)        -60.2133         estimate D2E/DX2                !
 ! D140  D(36,13,15,40)        179.6355         estimate D2E/DX2                !
 ! D141  D(36,13,15,41)         59.6597         estimate D2E/DX2                !
 ! D142  D(13,14,62,63)       -176.6707         estimate D2E/DX2                !
 ! D143  D(13,14,62,64)        -57.1407         estimate D2E/DX2                !
 ! D144  D(13,14,62,65)         63.5273         estimate D2E/DX2                !
 ! D145  D(37,14,62,63)         60.5395         estimate D2E/DX2                !
 ! D146  D(37,14,62,64)       -179.9305         estimate D2E/DX2                !
 ! D147  D(37,14,62,65)        -59.2625         estimate D2E/DX2                !
 ! D148  D(38,14,62,63)        -55.1126         estimate D2E/DX2                !
 ! D149  D(38,14,62,64)         64.4173         estimate D2E/DX2                !
 ! D150  D(38,14,62,65)       -174.9147         estimate D2E/DX2                !
 ! D151  D(7,17,18,19)          31.8081         estimate D2E/DX2                !
 ! D152  D(7,17,18,28)         -83.8423         estimate D2E/DX2                !
 ! D153  D(7,17,18,29)         146.7351         estimate D2E/DX2                !
 ! D154  D(20,17,18,19)        -78.0491         estimate D2E/DX2                !
 ! D155  D(20,17,18,28)        166.3004         estimate D2E/DX2                !
 ! D156  D(20,17,18,29)         36.8779         estimate D2E/DX2                !
 ! D157  D(30,17,18,19)        151.9967         estimate D2E/DX2                !
 ! D158  D(30,17,18,28)         36.3462         estimate D2E/DX2                !
 ! D159  D(30,17,18,29)        -93.0763         estimate D2E/DX2                !
 ! D160  D(7,17,20,3)           35.8679         estimate D2E/DX2                !
 ! D161  D(7,17,20,42)         158.8439         estimate D2E/DX2                !
 ! D162  D(7,17,20,43)         -81.8919         estimate D2E/DX2                !
 ! D163  D(18,17,20,3)         146.5326         estimate D2E/DX2                !
 ! D164  D(18,17,20,42)        -90.4914         estimate D2E/DX2                !
 ! D165  D(18,17,20,43)         28.7728         estimate D2E/DX2                !
 ! D166  D(30,17,20,3)         -83.6005         estimate D2E/DX2                !
 ! D167  D(30,17,20,42)         39.3755         estimate D2E/DX2                !
 ! D168  D(30,17,20,43)        158.6397         estimate D2E/DX2                !
 ! D169  D(17,18,19,8)         -13.1666         estimate D2E/DX2                !
 ! D170  D(28,18,19,8)         106.092          estimate D2E/DX2                !
 ! D171  D(29,18,19,8)        -135.1765         estimate D2E/DX2                !
 ! D172  D(17,18,28,53)        169.6019         estimate D2E/DX2                !
 ! D173  D(17,18,28,54)        -71.5641         estimate D2E/DX2                !
 ! D174  D(17,18,28,55)         48.7963         estimate D2E/DX2                !
 ! D175  D(19,18,28,53)         57.4195         estimate D2E/DX2                !
 ! D176  D(19,18,28,54)        176.2536         estimate D2E/DX2                !
 ! D177  D(19,18,28,55)        -63.3861         estimate D2E/DX2                !
 ! D178  D(29,18,28,53)        -58.3073         estimate D2E/DX2                !
 ! D179  D(29,18,28,54)         60.5268         estimate D2E/DX2                !
 ! D180  D(29,18,28,55)       -179.1128         estimate D2E/DX2                !
 ! D181  D(17,18,29,56)         65.1149         estimate D2E/DX2                !
 ! D182  D(17,18,29,57)       -176.0213         estimate D2E/DX2                !
 ! D183  D(17,18,29,58)        -55.7311         estimate D2E/DX2                !
 ! D184  D(19,18,29,56)        177.802          estimate D2E/DX2                !
 ! D185  D(19,18,29,57)        -63.3342         estimate D2E/DX2                !
 ! D186  D(19,18,29,58)         56.956          estimate D2E/DX2                !
 ! D187  D(28,18,29,56)        -65.3572         estimate D2E/DX2                !
 ! D188  D(28,18,29,57)         53.5066         estimate D2E/DX2                !
 ! D189  D(28,18,29,58)        173.7968         estimate D2E/DX2                !
 ! D190  D(5,22,23,24)         -31.9259         estimate D2E/DX2                !
 ! D191  D(5,22,23,25)        -155.1413         estimate D2E/DX2                !
 ! D192  D(5,22,23,47)          83.4188         estimate D2E/DX2                !
 ! D193  D(45,22,23,24)         85.7688         estimate D2E/DX2                !
 ! D194  D(45,22,23,25)        -37.4466         estimate D2E/DX2                !
 ! D195  D(45,22,23,47)       -158.8864         estimate D2E/DX2                !
 ! D196  D(46,22,23,24)       -152.4682         estimate D2E/DX2                !
 ! D197  D(46,22,23,25)         84.3165         estimate D2E/DX2                !
 ! D198  D(46,22,23,47)        -37.1234         estimate D2E/DX2                !
 ! D199  D(22,23,24,4)          14.7587         estimate D2E/DX2                !
 ! D200  D(25,23,24,4)         140.613          estimate D2E/DX2                !
 ! D201  D(47,23,24,4)        -101.7192         estimate D2E/DX2                !
 ! D202  D(22,23,25,26)        -54.5154         estimate D2E/DX2                !
 ! D203  D(22,23,25,27)        128.0267         estimate D2E/DX2                !
 ! D204  D(24,23,25,26)       -174.2428         estimate D2E/DX2                !
 ! D205  D(24,23,25,27)          8.2992         estimate D2E/DX2                !
 ! D206  D(47,23,25,26)         67.9364         estimate D2E/DX2                !
 ! D207  D(47,23,25,27)       -109.5216         estimate D2E/DX2                !
 ! D208  D(23,25,26,48)        -54.7613         estimate D2E/DX2                !
 ! D209  D(23,25,26,49)         64.1836         estimate D2E/DX2                !
 ! D210  D(23,25,26,50)       -174.9932         estimate D2E/DX2                !
 ! D211  D(27,25,26,48)        122.6886         estimate D2E/DX2                !
 ! D212  D(27,25,26,49)       -118.3665         estimate D2E/DX2                !
 ! D213  D(27,25,26,50)          2.4568         estimate D2E/DX2                !
 ! D214  D(23,25,27,51)        179.0964         estimate D2E/DX2                !
 ! D215  D(23,25,27,52)          0.7491         estimate D2E/DX2                !
 ! D216  D(26,25,27,51)          1.8271         estimate D2E/DX2                !
 ! D217  D(26,25,27,52)       -176.5202         estimate D2E/DX2                !
 --------------------------------------------------------------------------------
 Trust Radius=3.00D-01 FncErr=1.00D-07 GrdErr=1.00D-06
 Number of steps in this run=    390 maximum allowed number of steps=    390.
 GradGradGradGradGradGradGradGradGradGradGradGradGradGradGradGradGradGrad

 Stoichiometry    C26H34O5
 Framework group  C1[X(C26H34O5)]
 Deg. of freedom   189
 Full point group                 C1      NOp   1
 Largest Abelian subgroup         C1      NOp   1
 Largest concise Abelian subgroup C1      NOp   1
                         Standard orientation:                         
 ---------------------------------------------------------------------
 Center     Atomic      Atomic             Coordinates (Angstroms)
 Number     Number       Type             X           Y           Z
 ---------------------------------------------------------------------
      1          6           0        1.691605    0.694170    3.106998
      2          6           0        1.595173    1.825243    2.398779
      3          6           0        1.683186    1.817436    0.886483
      4          6           0        1.574830    0.417178    0.206305
      5          6           0        1.290185   -0.824663    1.091988
      6          6           0        1.900824   -0.667945    2.505857
      7          6           0        0.520864    0.611116   -0.917255
      8          6           0       -0.894814    0.362153   -0.445591
      9          6           0       -1.251700   -0.521160    0.512171
     10          6           0       -0.199653   -1.232196    1.254035
     11          6           0       -2.689003   -0.708617    0.953822
     12          8           0       -3.014077   -0.431398    2.092153
     13          6           0       -3.667054   -1.283264   -0.068878
     14          6           0       -5.123854   -1.077997    0.377141
     15          6           0       -3.305545   -2.767722   -0.302796
     16          8           0       -0.467549   -2.160630    2.005870
     17          6           0        0.412588    2.122961   -1.216172
     18          6           0       -1.016256    2.258624   -1.796840
     19          8           0       -1.754232    1.188695   -1.069158
     20          6           0        0.635622    2.730227    0.184192
     21          8           0        0.755112   -0.228679   -2.032639
     22          6           0        2.028142   -1.942504    0.311444
     23          6           0        3.269630   -1.215381   -0.225831
     24          8           0        2.838916    0.140013   -0.448883
     25          6           0        3.889197   -1.811534   -1.472055
     26          6           0        4.246729   -3.274146   -1.373022
     27          6           0        4.148129   -1.079673   -2.560772
     28          6           0       -1.084537    1.943238   -3.292956
     29          6           0       -1.745580    3.563063   -1.485381
     30          1           0        1.173278    2.453152   -1.930427
     31          1           0        2.680825    2.182484    0.603598
     32          6           0        1.467409    3.172550    3.065918
     33          1           0        1.657258    0.747634    4.194187
     34          1           0        2.979996   -0.880690    2.466373
     35          1           0        1.461385   -1.445040    3.138311
     36          1           0       -3.496834   -0.744831   -1.012697
     37          1           0       -5.302427   -1.660616    1.288894
     38          1           0       -5.253807   -0.028261    0.667109
     39          1           0       -3.932492   -3.198824   -1.089562
     40          1           0       -3.452457   -3.349318    0.614161
     41          1           0       -2.260640   -2.881101   -0.608929
     42          1           0        0.960061    3.773927    0.143632
     43          1           0       -0.299885    2.705916    0.752967
     44          1           0        1.726974   -0.265348   -2.127962
     45          1           0        1.412906   -2.300029   -0.520365
     46          1           0        2.269026   -2.791795    0.955927
     47          1           0        4.048454   -1.196125    0.554460
     48          1           0        4.900504   -3.463864   -0.510639
     49          1           0        3.356189   -3.900701   -1.236588
     50          1           0        4.767538   -3.614952   -2.272215
     51          1           0        4.606703   -1.523774   -3.440198
     52          1           0        3.936315   -0.015981   -2.598531
     53          1           0       -2.129982    1.872590   -3.610904
     54          1           0       -0.607783    2.746780   -3.866233
     55          1           0       -0.577731    1.003251   -3.518277
     56          1           0       -1.227374    4.402546   -1.962044
     57          1           0       -2.765713    3.525058   -1.880450
     58          1           0       -1.805017    3.755314   -0.411724
     59          1           0        1.484311    3.075114    4.155666
     60          1           0        2.290983    3.839715    2.773172
     61          1           0        0.536283    3.684507    2.791045
     62          6           0       -6.159497   -1.440818   -0.692757
     63          1           0       -7.173475   -1.219204   -0.340641
     64          1           0       -5.997643   -0.868783   -1.615451
     65          1           0       -6.130807   -2.504787   -0.953377
 ---------------------------------------------------------------------
 Rotational constants (GHZ):      0.1972233      0.1214601      0.1155335
 Standard basis: 6-311+G(d) (5D, 7F)
 There are   784 symmetry adapted basis functions of A   symmetry.
 Integral buffers will be    131072 words long.
 Raffenetti 2 integral format.
 Two-electron integral symmetry is turned on.
   784 basis functions,  1286 primitive gaussians,   815 cartesian basis functions
   115 alpha electrons      115 beta electrons
       nuclear repulsion energy      3499.7064028344 Hartrees.
 NAtoms=   65 NActive=   65 NUniq=   65 SFac= 1.00D+00 NAtFMM=   50 NAOKFM=T Big=T
 One-electron integrals computed using PRISM.
 NBasis=   784 RedAO= T  NBF=   784
 NBsUse=   777 1.00D-06 NBFU=   777
 Harris functional with IExCor=  402 diagonalized for initial guess.
 ExpMin= 4.38D-02 ExpMax= 8.59D+03 ExpMxC= 1.30D+03 IAcc=2 IRadAn=         0 AccDes= 0.00D+00
 HarFok:  IExCor=  402 AccDes= 0.00D+00 IRadAn=         0 IDoV= 1
 ScaDFX=  1.000000  1.000000  1.000000  1.000000
 FoFCou: FMM=F IPFlag=           0 FMFlag=      100000 FMFlg1=        2001
         NFxFlg=           0 DoJE=T BraDBF=F KetDBF=T FulRan=T
         Omega=  0.000000  0.000000  1.000000  0.000000  0.000000 ICntrl=     500 IOpCl=  0
         NMat0=    1 NMatS0=    1 NMatT0=    0 NMatD0=    1 NMtDS0=    0 NMtDT0=    0
         I1Cent=           4 NGrid=           0.
 Petite list used in FoFCou.
 Initial guess orbital symmetries:
       Occupied  (A) (A) (A) (A) (A) (A) (A) (A) (A) (A) (A) (A)
                 (A) (A) (A) (A) (A) (A) (A) (A) (A) (A) (A) (A)
                 (A) (A) (A) (A) (A) (A) (A) (A) (A) (A) (A) (A)
                 (A) (A) (A) (A) (A) (A) (A) (A) (A) (A) (A) (A)
                 (A) (A) (A) (A) (A) (A) (A) (A) (A) (A) (A) (A)
                 (A) (A) (A) (A) (A) (A) (A) (A) (A) (A) (A) (A)
                 (A) (A) (A) (A) (A) (A) (A) (A) (A) (A) (A) (A)
                 (A) (A) (A) (A) (A) (A) (A) (A) (A) (A) (A) (A)
                 (A) (A) (A) (A) (A) (A) (A) (A) (A) (A) (A) (A)
                 (A) (A) (A) (A) (A) (A) (A)
       Virtual   (A) (A) (A) (A) (A) (A) (A) (A) (A) (A) (A) (A)
                 (A) (A) (A) (A) (A) (A) (A) (A) (A) (A) (A) (A)
                 (A) (A) (A) (A) (A) (A) (A) (A) (A) (A) (A) (A)
                 (A) (A) (A) (A) (A) (A) (A) (A) (A) (A) (A) (A)
                 (A) (A) (A) (A) (A) (A) (A) (A) (A) (A) (A) (A)
                 (A) (A) (A) (A) (A) (A) (A) (A) (A) (A) (A) (A)
                 (A) (A) (A) (A) (A) (A) (A) (A) (A) (A) (A) (A)
                 (A) (A) (A) (A) (A) (A) (A) (A) (A) (A) (A) (A)
                 (A) (A) (A) (A) (A) (A) (A) (A) (A) (A) (A) (A)
                 (A) (A) (A) (A) (A) (A) (A) (A) (A) (A) (A) (A)
                 (A) (A) (A) (A) (A) (A) (A) (A) (A) (A) (A) (A)
                 (A) (A) (A) (A) (A) (A) (A) (A) (A) (A) (A) (A)
                 (A) (A) (A) (A) (A) (A) (A) (A) (A) (A) (A) (A)
                 (A) (A) (A) (A) (A) (A) (A) (A) (A) (A) (A) (A)
                 (A) (A) (A) (A) (A) (A) (A) (A) (A) (A) (A) (A)
                 (A) (A) (A) (A) (A) (A) (A) (A) (A) (A) (A) (A)
                 (A) (A) (A) (A) (A) (A) (A) (A) (A) (A) (A) (A)
                 (A) (A) (A) (A) (A) (A) (A) (A) (A) (A) (A) (A)
                 (A) (A) (A) (A) (A) (A) (A) (A) (A) (A) (A) (A)
                 (A) (A) (A) (A) (A) (A) (A) (A) (A) (A) (A) (A)
                 (A) (A) (A) (A) (A) (A) (A) (A) (A) (A) (A) (A)
                 (A) (A) (A) (A) (A) (A) (A) (A) (A) (A) (A) (A)
                 (A) (A) (A) (A) (A) (A) (A) (A) (A) (A) (A) (A)
                 (A) (A) (A) (A) (A) (A) (A) (A) (A) (A) (A) (A)
                 (A) (A) (A) (A) (A) (A) (A) (A) (A) (A) (A) (A)
                 (A) (A) (A) (A) (A) (A) (A) (A) (A) (A) (A) (A)
                 (A) (A) (A) (A) (A) (A) (A) (A) (A) (A) (A) (A)
                 (A) (A) (A) (A) (A) (A) (A) (A) (A) (A) (A) (A)
                 (A) (A) (A) (A) (A) (A) (A) (A) (A) (A) (A) (A)
                 (A) (A) (A) (A) (A) (A) (A) (A) (A) (A) (A) (A)
                 (A) (A) (A) (A) (A) (A) (A) (A) (A) (A) (A) (A)
                 (A) (A) (A) (A) (A) (A) (A) (A) (A) (A) (A) (A)
                 (A) (A) (A) (A) (A) (A) (A) (A) (A) (A) (A) (A)
                 (A) (A) (A) (A) (A) (A) (A) (A) (A) (A) (A) (A)
                 (A) (A) (A) (A) (A) (A) (A) (A) (A) (A) (A) (A)
                 (A) (A) (A) (A) (A) (A) (A) (A) (A) (A) (A) (A)
                 (A) (A) (A) (A) (A) (A) (A) (A) (A) (A) (A) (A)
                 (A) (A) (A) (A) (A) (A) (A) (A) (A) (A) (A) (A)
                 (A) (A) (A) (A) (A) (A) (A) (A) (A) (A) (A) (A)
                 (A) (A) (A) (A) (A) (A) (A) (A) (A) (A) (A) (A)
                 (A) (A) (A) (A) (A) (A) (A) (A) (A) (A) (A) (A)
                 (A) (A) (A) (A) (A) (A) (A) (A) (A) (A) (A) (A)
                 (A) (A) (A) (A) (A) (A) (A) (A) (A) (A) (A) (A)
                 (A) (A) (A) (A) (A) (A) (A) (A) (A) (A) (A) (A)
                 (A) (A) (A) (A) (A) (A) (A) (A) (A) (A) (A) (A)
                 (A) (A) (A) (A) (A) (A) (A) (A) (A) (A) (A) (A)
                 (A) (A) (A) (A) (A) (A) (A) (A) (A) (A) (A) (A)
                 (A) (A) (A) (A) (A) (A) (A) (A) (A) (A) (A) (A)
                 (A) (A) (A) (A) (A) (A) (A) (A) (A) (A) (A) (A)
                 (A) (A) (A) (A) (A) (A) (A) (A) (A) (A) (A) (A)
                 (A) (A) (A) (A) (A) (A) (A) (A) (A) (A) (A) (A)
                 (A) (A) (A) (A) (A) (A) (A) (A) (A) (A) (A) (A)
                 (A) (A) (A) (A) (A) (A) (A) (A) (A) (A) (A) (A)
                 (A) (A) (A) (A) (A) (A) (A) (A) (A) (A) (A) (A)
                 (A) (A) (A) (A) (A) (A) (A) (A) (A) (A) (A) (A)
                 (A) (A)
 The electronic state of the initial guess is 1-A.
 Requested convergence on RMS density matrix=1.00D-08 within 128 cycles.
 Requested convergence on MAX density matrix=1.00D-06.
 Requested convergence on             energy=1.00D-06.
 No special actions if energy rises.
 SCF Done:  E(RB3LYP) =  -1387.64904724     A.U. after   17 cycles
             Convg  =    0.5510D-08             -V/T =  2.0043

 **********************************************************************

            Population analysis using the SCF density.

 **********************************************************************

 Orbital symmetries:
       Occupied  (A) (A) (A) (A) (A) (A) (A) (A) (A) (A) (A) (A)
                 (A) (A) (A) (A) (A) (A) (A) (A) (A) (A) (A) (A)
                 (A) (A) (A) (A) (A) (A) (A) (A) (A) (A) (A) (A)
                 (A) (A) (A) (A) (A) (A) (A) (A) (A) (A) (A) (A)
                 (A) (A) (A) (A) (A) (A) (A) (A) (A) (A) (A) (A)
                 (A) (A) (A) (A) (A) (A) (A) (A) (A) (A) (A) (A)
                 (A) (A) (A) (A) (A) (A) (A) (A) (A) (A) (A) (A)
                 (A) (A) (A) (A) (A) (A) (A) (A) (A) (A) (A) (A)
                 (A) (A) (A) (A) (A) (A) (A) (A) (A) (A) (A) (A)
                 (A) (A) (A) (A) (A) (A) (A)
       Virtual   (A) (A) (A) (A) (A) (A) (A) (A) (A) (A) (A) (A)
                 (A) (A) (A) (A) (A) (A) (A) (A) (A) (A) (A) (A)
                 (A) (A) (A) (A) (A) (A) (A) (A) (A) (A) (A) (A)
                 (A) (A) (A) (A) (A) (A) (A) (A) (A) (A) (A) (A)
                 (A) (A) (A) (A) (A) (A) (A) (A) (A) (A) (A) (A)
                 (A) (A) (A) (A) (A) (A) (A) (A) (A) (A) (A) (A)
                 (A) (A) (A) (A) (A) (A) (A) (A) (A) (A) (A) (A)
                 (A) (A) (A) (A) (A) (A) (A) (A) (A) (A) (A) (A)
                 (A) (A) (A) (A) (A) (A) (A) (A) (A) (A) (A) (A)
                 (A) (A) (A) (A) (A) (A) (A) (A) (A) (A) (A) (A)
                 (A) (A) (A) (A) (A) (A) (A) (A) (A) (A) (A) (A)
                 (A) (A) (A) (A) (A) (A) (A) (A) (A) (A) (A) (A)
                 (A) (A) (A) (A) (A) (A) (A) (A) (A) (A) (A) (A)
                 (A) (A) (A) (A) (A) (A) (A) (A) (A) (A) (A) (A)
                 (A) (A) (A) (A) (A) (A) (A) (A) (A) (A) (A) (A)
                 (A) (A) (A) (A) (A) (A) (A) (A) (A) (A) (A) (A)
                 (A) (A) (A) (A) (A) (A) (A) (A) (A) (A) (A) (A)
                 (A) (A) (A) (A) (A) (A) (A) (A) (A) (A) (A) (A)
                 (A) (A) (A) (A) (A) (A) (A) (A) (A) (A) (A) (A)
                 (A) (A) (A) (A) (A) (A) (A) (A) (A) (A) (A) (A)
                 (A) (A) (A) (A) (A) (A) (A) (A) (A) (A) (A) (A)
                 (A) (A) (A) (A) (A) (A) (A) (A) (A) (A) (A) (A)
                 (A) (A) (A) (A) (A) (A) (A) (A) (A) (A) (A) (A)
                 (A) (A) (A) (A) (A) (A) (A) (A) (A) (A) (A) (A)
                 (A) (A) (A) (A) (A) (A) (A) (A) (A) (A) (A) (A)
                 (A) (A) (A) (A) (A) (A) (A) (A) (A) (A) (A) (A)
                 (A) (A) (A) (A) (A) (A) (A) (A) (A) (A) (A) (A)
                 (A) (A) (A) (A) (A) (A) (A) (A) (A) (A) (A) (A)
                 (A) (A) (A) (A) (A) (A) (A) (A) (A) (A) (A) (A)
                 (A) (A) (A) (A) (A) (A) (A) (A) (A) (A) (A) (A)
                 (A) (A) (A) (A) (A) (A) (A) (A) (A) (A) (A) (A)
                 (A) (A) (A) (A) (A) (A) (A) (A) (A) (A) (A) (A)
                 (A) (A) (A) (A) (A) (A) (A) (A) (A) (A) (A) (A)
                 (A) (A) (A) (A) (A) (A) (A) (A) (A) (A) (A) (A)
                 (A) (A) (A) (A) (A) (A) (A) (A) (A) (A) (A) (A)
                 (A) (A) (A) (A) (A) (A) (A) (A) (A) (A) (A) (A)
                 (A) (A) (A) (A) (A) (A) (A) (A) (A) (A) (A) (A)
                 (A) (A) (A) (A) (A) (A) (A) (A) (A) (A) (A) (A)
                 (A) (A) (A) (A) (A) (A) (A) (A) (A) (A) (A) (A)
                 (A) (A) (A) (A) (A) (A) (A) (A) (A) (A) (A) (A)
                 (A) (A) (A) (A) (A) (A) (A) (A) (A) (A) (A) (A)
                 (A) (A) (A) (A) (A) (A) (A) (A) (A) (A) (A) (A)
                 (A) (A) (A) (A) (A) (A) (A) (A) (A) (A) (A) (A)
                 (A) (A) (A) (A) (A) (A) (A) (A) (A) (A) (A) (A)
                 (A) (A) (A) (A) (A) (A) (A) (A) (A) (A) (A) (A)
                 (A) (A) (A) (A) (A) (A) (A) (A) (A) (A) (A) (A)
                 (A) (A) (A) (A) (A) (A) (A) (A) (A) (A) (A) (A)
                 (A) (A) (A) (A) (A) (A) (A) (A) (A) (A) (A) (A)
                 (A) (A) (A) (A) (A) (A) (A) (A) (A) (A) (A) (A)
                 (A) (A) (A) (A) (A) (A) (A) (A) (A) (A) (A) (A)
                 (A) (A) (A) (A) (A) (A) (A) (A) (A) (A) (A) (A)
                 (A) (A) (A) (A) (A) (A) (A) (A) (A) (A) (A) (A)
                 (A) (A) (A) (A) (A) (A) (A) (A) (A) (A) (A) (A)
                 (A) (A) (A) (A) (A) (A) (A) (A) (A) (A) (A) (A)
                 (A) (A) (A) (A) (A) (A) (A) (A) (A) (A) (A) (A)
                 (A) (A)
 The electronic state is 1-A.
 Alpha  occ. eigenvalues --  -19.17786 -19.14759 -19.14038 -19.10900 -19.10553
 Alpha  occ. eigenvalues --  -10.26482 -10.26388 -10.26071 -10.25862 -10.25437
 Alpha  occ. eigenvalues --  -10.25306 -10.24446 -10.20718 -10.19983 -10.19964
 Alpha  occ. eigenvalues --  -10.19509 -10.18878 -10.18740 -10.18569 -10.18355
 Alpha  occ. eigenvalues --  -10.18094 -10.17979 -10.17792 -10.17553 -10.17245
 Alpha  occ. eigenvalues --  -10.17159 -10.17142 -10.16953 -10.15866 -10.15699
 Alpha  occ. eigenvalues --  -10.15335  -1.10179  -1.07212  -1.04485  -1.03877
 Alpha  occ. eigenvalues --   -1.03462  -0.87696  -0.84691  -0.83372  -0.82374
 Alpha  occ. eigenvalues --   -0.81110  -0.80445  -0.77696  -0.75121  -0.74118
 Alpha  occ. eigenvalues --   -0.72945  -0.72129  -0.70799  -0.70312  -0.68786
 Alpha  occ. eigenvalues --   -0.65831  -0.65517  -0.64069  -0.63022  -0.61557
 Alpha  occ. eigenvalues --   -0.60294  -0.59429  -0.57859  -0.55909  -0.54794
 Alpha  occ. eigenvalues --   -0.53771  -0.53325  -0.51627  -0.51289  -0.50186
 Alpha  occ. eigenvalues --   -0.49028  -0.48553  -0.47674  -0.47362  -0.46780
 Alpha  occ. eigenvalues --   -0.46020  -0.45780  -0.45357  -0.44701  -0.44240
 Alpha  occ. eigenvalues --   -0.44091  -0.43776  -0.43004  -0.42487  -0.42111
 Alpha  occ. eigenvalues --   -0.41695  -0.41521  -0.41334  -0.40963  -0.40526
 Alpha  occ. eigenvalues --   -0.39935  -0.39854  -0.39579  -0.39254  -0.38861
 Alpha  occ. eigenvalues --   -0.38490  -0.38345  -0.38129  -0.37990  -0.37570
 Alpha  occ. eigenvalues --   -0.37152  -0.36988  -0.36096  -0.35548  -0.35379
 Alpha  occ. eigenvalues --   -0.35022  -0.34678  -0.34490  -0.33855  -0.32984
 Alpha  occ. eigenvalues --   -0.32404  -0.32256  -0.32074  -0.29581  -0.27835
 Alpha  occ. eigenvalues --   -0.26936  -0.26007  -0.25300  -0.24371  -0.24168
 Alpha virt. eigenvalues --   -0.05893  -0.02844  -0.01615  -0.01187  -0.00159
 Alpha virt. eigenvalues --    0.00155   0.00668   0.00964   0.01540   0.01799
 Alpha virt. eigenvalues --    0.02074   0.02478   0.03002   0.03243   0.03535
 Alpha virt. eigenvalues --    0.03662   0.04158   0.04395   0.04443   0.04777
 Alpha virt. eigenvalues --    0.05004   0.05086   0.05605   0.05904   0.06382
 Alpha virt. eigenvalues --    0.06686   0.06804   0.07004   0.07254   0.07296
 Alpha virt. eigenvalues --    0.07614   0.07869   0.08126   0.08509   0.08712
 Alpha virt. eigenvalues --    0.08925   0.09082   0.09209   0.09473   0.09694
 Alpha virt. eigenvalues --    0.10187   0.10309   0.10486   0.10744   0.11055
 Alpha virt. eigenvalues --    0.11131   0.11274   0.11992   0.12058   0.12261
 Alpha virt. eigenvalues --    0.12501   0.12686   0.12746   0.12893   0.13175
 Alpha virt. eigenvalues --    0.13397   0.13480   0.14064   0.14257   0.14857
 Alpha virt. eigenvalues --    0.15135   0.15461   0.15539   0.15846   0.16014
 Alpha virt. eigenvalues --    0.16213   0.16420   0.16682   0.17049   0.17257
 Alpha virt. eigenvalues --    0.17452   0.17646   0.17870   0.17984   0.18080
 Alpha virt. eigenvalues --    0.18277   0.18628   0.18722   0.18962   0.19095
 Alpha virt. eigenvalues --    0.19372   0.19478   0.19696   0.19748   0.19839
 Alpha virt. eigenvalues --    0.20362   0.20622   0.20694   0.20878   0.21253
 Alpha virt. eigenvalues --    0.21332   0.21678   0.21837   0.21960   0.22145
 Alpha virt. eigenvalues --    0.22198   0.22425   0.22716   0.22881   0.23070
 Alpha virt. eigenvalues --    0.23165   0.23258   0.23505   0.23918   0.24099
 Alpha virt. eigenvalues --    0.24264   0.24419   0.24565   0.24689   0.24878
 Alpha virt. eigenvalues --    0.24987   0.25174   0.25422   0.25552   0.25756
 Alpha virt. eigenvalues --    0.26019   0.26142   0.26264   0.26631   0.26753
 Alpha virt. eigenvalues --    0.27234   0.27314   0.27600   0.27765   0.28213
 Alpha virt. eigenvalues --    0.28468   0.28753   0.28849   0.29056   0.29272
 Alpha virt. eigenvalues --    0.29416   0.29811   0.30202   0.30221   0.30616
 Alpha virt. eigenvalues --    0.30639   0.30958   0.31422   0.31534   0.31889
 Alpha virt. eigenvalues --    0.32033   0.32506   0.32841   0.33397   0.33457
 Alpha virt. eigenvalues --    0.33922   0.34343   0.34476   0.34788   0.35022
 Alpha virt. eigenvalues --    0.35381   0.35497   0.36096   0.36379   0.36942
 Alpha virt. eigenvalues --    0.37169   0.37618   0.37924   0.38286   0.38573
 Alpha virt. eigenvalues --    0.38934   0.39153   0.39405   0.39963   0.40455
 Alpha virt. eigenvalues --    0.40809   0.41169   0.41684   0.41936   0.42148
 Alpha virt. eigenvalues --    0.42522   0.42969   0.43150   0.43840   0.44224
 Alpha virt. eigenvalues --    0.44416   0.44818   0.45208   0.45419   0.45571
 Alpha virt. eigenvalues --    0.45908   0.46108   0.46931   0.47002   0.47359
 Alpha virt. eigenvalues --    0.47850   0.48223   0.48627   0.49185   0.49541
 Alpha virt. eigenvalues --    0.49993   0.50183   0.50890   0.51131   0.51490
 Alpha virt. eigenvalues --    0.51842   0.52598   0.53042   0.53452   0.53853
 Alpha virt. eigenvalues --    0.54215   0.54581   0.54847   0.54939   0.55334
 Alpha virt. eigenvalues --    0.55990   0.56794   0.56968   0.57305   0.57817
 Alpha virt. eigenvalues --    0.58181   0.58303   0.58971   0.59308   0.59572
 Alpha virt. eigenvalues --    0.60522   0.61090   0.61323   0.61873   0.62076
 Alpha virt. eigenvalues --    0.62537   0.63351   0.63389   0.63984   0.64136
 Alpha virt. eigenvalues --    0.64603   0.64928   0.65259   0.65288   0.65694
 Alpha virt. eigenvalues --    0.66183   0.66290   0.66596   0.67051   0.67264
 Alpha virt. eigenvalues --    0.67334   0.67793   0.68086   0.68217   0.68871
 Alpha virt. eigenvalues --    0.69043   0.69259   0.69815   0.69877   0.70164
 Alpha virt. eigenvalues --    0.70381   0.70446   0.70736   0.71089   0.71288
 Alpha virt. eigenvalues --    0.71538   0.71793   0.72714   0.73110   0.73345
 Alpha virt. eigenvalues --    0.73604   0.74016   0.74516   0.74821   0.75024
 Alpha virt. eigenvalues --    0.75204   0.75839   0.76000   0.76549   0.77291
 Alpha virt. eigenvalues --    0.77599   0.77836   0.78070   0.78506   0.78878
 Alpha virt. eigenvalues --    0.79193   0.79512   0.79929   0.80355   0.80698
 Alpha virt. eigenvalues --    0.81107   0.81505   0.81761   0.82124   0.82337
 Alpha virt. eigenvalues --    0.82834   0.83209   0.83907   0.84157   0.84854
 Alpha virt. eigenvalues --    0.85279   0.85750   0.87539   0.88334   0.88952
 Alpha virt. eigenvalues --    0.89310   0.90540   0.90828   0.91261   0.92607
 Alpha virt. eigenvalues --    0.93110   0.94270   0.95274   0.95601   0.96581
 Alpha virt. eigenvalues --    0.96895   0.98527   0.99131   0.99951   1.00622
 Alpha virt. eigenvalues --    1.01878   1.02963   1.03752   1.04955   1.05378
 Alpha virt. eigenvalues --    1.06241   1.07502   1.08151   1.09102   1.09527
 Alpha virt. eigenvalues --    1.10304   1.12143   1.12744   1.13330   1.13843
 Alpha virt. eigenvalues --    1.14501   1.15749   1.16205   1.16987   1.18804
 Alpha virt. eigenvalues --    1.20104   1.20743   1.21859   1.22895   1.24242
 Alpha virt. eigenvalues --    1.24788   1.25130   1.25835   1.27242   1.27672
 Alpha virt. eigenvalues --    1.28562   1.29693   1.31851   1.31950   1.32282
 Alpha virt. eigenvalues --    1.33631   1.34021   1.34410   1.35094   1.35975
 Alpha virt. eigenvalues --    1.36565   1.37551   1.38162   1.39018   1.39256
 Alpha virt. eigenvalues --    1.40776   1.41987   1.42632   1.42918   1.44088
 Alpha virt. eigenvalues --    1.44510   1.46056   1.47405   1.47586   1.48534
 Alpha virt. eigenvalues --    1.49893   1.50426   1.50495   1.51575   1.52239
 Alpha virt. eigenvalues --    1.53070   1.53403   1.54027   1.54642   1.55058
 Alpha virt. eigenvalues --    1.55793   1.56574   1.56792   1.57260   1.58072
 Alpha virt. eigenvalues --    1.58203   1.58619   1.59410   1.59715   1.60285
 Alpha virt. eigenvalues --    1.60523   1.61451   1.61836   1.62451   1.62723
 Alpha virt. eigenvalues --    1.62813   1.63396   1.64144   1.64361   1.65028
 Alpha virt. eigenvalues --    1.65544   1.65653   1.66246   1.66614   1.66780
 Alpha virt. eigenvalues --    1.67385   1.67669   1.68887   1.68970   1.69963
 Alpha virt. eigenvalues --    1.70239   1.71338   1.71667   1.72083   1.72560
 Alpha virt. eigenvalues --    1.73610   1.73980   1.74562   1.75859   1.76010
 Alpha virt. eigenvalues --    1.76472   1.77484   1.78307   1.78612   1.79119
 Alpha virt. eigenvalues --    1.79945   1.81069   1.82557   1.83769   1.83989
 Alpha virt. eigenvalues --    1.84890   1.85559   1.86126   1.86537   1.87317
 Alpha virt. eigenvalues --    1.88033   1.88814   1.88982   1.91023   1.91307
 Alpha virt. eigenvalues --    1.91681   1.93449   1.93837   1.94856   1.95462
 Alpha virt. eigenvalues --    1.95834   1.98699   1.99137   1.99679   2.01722
 Alpha virt. eigenvalues --    2.02497   2.03352   2.03683   2.05225   2.06463
 Alpha virt. eigenvalues --    2.06549   2.08385   2.08891   2.10022   2.10931
 Alpha virt. eigenvalues --    2.12860   2.13040   2.14110   2.14754   2.15804
 Alpha virt. eigenvalues --    2.16647   2.18531   2.19969   2.21062   2.22162
 Alpha virt. eigenvalues --    2.22959   2.23639   2.25006   2.25882   2.27202
 Alpha virt. eigenvalues --    2.28759   2.29358   2.31417   2.32000   2.33222
 Alpha virt. eigenvalues --    2.36385   2.37306   2.38773   2.39406   2.43517
 Alpha virt. eigenvalues --    2.44587   2.47703   2.48174   2.49481   2.51168
 Alpha virt. eigenvalues --    2.52037   2.52682   2.53249   2.53878   2.54241
 Alpha virt. eigenvalues --    2.54675   2.55303   2.56027   2.56418   2.57107
 Alpha virt. eigenvalues --    2.57490   2.58387   2.59070   2.60499   2.60772
 Alpha virt. eigenvalues --    2.61448   2.62620   2.63779   2.65058   2.65732
 Alpha virt. eigenvalues --    2.66521   2.67538   2.67770   2.69281   2.70747
 Alpha virt. eigenvalues --    2.71315   2.71609   2.72419   2.73391   2.74654
 Alpha virt. eigenvalues --    2.75858   2.77459   2.79241   2.83894   2.84979
 Alpha virt. eigenvalues --    2.85832   2.86699   2.87705   2.89495   2.90687
 Alpha virt. eigenvalues --    2.91011   2.92615   2.93399   2.94600   2.95536
 Alpha virt. eigenvalues --    2.96638   2.97882   2.98499   2.98993   2.99875
 Alpha virt. eigenvalues --    3.00535   3.01067   3.02564   3.03371   3.04200
 Alpha virt. eigenvalues --    3.04612   3.06289   3.06842   3.07534   3.08903
 Alpha virt. eigenvalues --    3.09185   3.10986   3.12397   3.12668   3.13717
 Alpha virt. eigenvalues --    3.14229   3.15627   3.15926   3.16618   3.16950
 Alpha virt. eigenvalues --    3.17635   3.19604   3.20142   3.20965   3.21546
 Alpha virt. eigenvalues --    3.22557   3.24719   3.25039   3.25530   3.26204
 Alpha virt. eigenvalues --    3.26247   3.27400   3.27956   3.28297   3.28809
 Alpha virt. eigenvalues --    3.29583   3.30131   3.31659   3.32830   3.33355
 Alpha virt. eigenvalues --    3.34590   3.35735   3.36761   3.37925   3.38937
 Alpha virt. eigenvalues --    3.39592   3.40220   3.41694   3.42293   3.43690
 Alpha virt. eigenvalues --    3.46354   3.47846   3.50772   3.51497   3.53456
 Alpha virt. eigenvalues --    3.54992   3.60323   3.62401   3.65441   3.74605
 Alpha virt. eigenvalues --    3.75969   3.78775   3.79627   3.87759   3.89232
 Alpha virt. eigenvalues --    3.89835   3.97026   3.98061   4.01121   4.02386
 Alpha virt. eigenvalues --    4.05208   4.05973   4.07568   4.10551   4.12423
 Alpha virt. eigenvalues --    4.17311   4.18038   4.20097   4.21688   4.22223
 Alpha virt. eigenvalues --    4.23346   4.24641   4.29412   4.32206   4.44761
 Alpha virt. eigenvalues --    4.61172   5.14561   5.15147   5.17879   5.22183
 Alpha virt. eigenvalues --    5.23473   5.27397   5.32558   5.33038   5.41395
 Alpha virt. eigenvalues --    5.43700   5.57574   5.67874   5.74217   5.77938
 Alpha virt. eigenvalues --    5.82818  23.46350  23.47755  23.50553  23.52980
 Alpha virt. eigenvalues --   23.59495  23.64103  23.66161  23.66357  23.68497
 Alpha virt. eigenvalues --   23.70451  23.73188  23.74667  23.76787  23.78447
 Alpha virt. eigenvalues --   23.79187  23.79565  23.82076  23.84083  23.86115
 Alpha virt. eigenvalues --   23.87195  23.89385  23.89961  23.96216  24.18958
 Alpha virt. eigenvalues --   24.19316  24.22297  49.98858  50.00087  50.02174
 Alpha virt. eigenvalues --   50.03316  50.06966
          Condensed to atoms (all electrons):
 Mulliken atomic charges:
              1
     1  C   -0.611442
     2  C    0.845758
     3  C   -0.304197
     4  C   -0.341287
     5  C    1.248877
     6  C   -0.629168
     7  C   -1.273266
     8  C   -0.071033
     9  C    0.147343
    10  C   -0.437968
    11  C    0.100912
    12  O   -0.165048
    13  C    0.156828
    14  C   -0.118566
    15  C   -1.159384
    16  O   -0.155783
    17  C    0.211271
    18  C    0.460975
    19  O    0.132427
    20  C   -1.284828
    21  O    0.027253
    22  C   -0.845334
    23  C   -0.401495
    24  O   -0.048165
    25  C    1.101763
    26  C   -1.134678
    27  C   -0.774986
    28  C   -0.713483
    29  C   -0.652720
    30  H    0.227362
    31  H    0.275769
    32  C   -1.069319
    33  H    0.205482
    34  H    0.242351
    35  H    0.277837
    36  H    0.245366
    37  H    0.254316
    38  H    0.248765
    39  H    0.258535
    40  H    0.278845
    41  H    0.272517
    42  H    0.268646
    43  H    0.278909
    44  H    0.270624
    45  H    0.297777
    46  H    0.281243
    47  H    0.248652
    48  H    0.260942
    49  H    0.267469
    50  H    0.258653
    51  H    0.223332
    52  H    0.245175
    53  H    0.260643
    54  H    0.246898
    55  H    0.308286
    56  H    0.261846
    57  H    0.267634
    58  H    0.261332
    59  H    0.257328
    60  H    0.255451
    61  H    0.256114
    62  C   -1.024984
    63  H    0.247479
    64  H    0.234663
    65  H    0.237485
 Sum of Mulliken atomic charges =   0.00000
 Mulliken charges with hydrogens summed into heavy atoms:
              1
     1  C   -0.405960
     2  C    0.845758
     3  C   -0.028428
     4  C   -0.341287
     5  C    1.248877
     6  C   -0.108980
     7  C   -1.273266
     8  C   -0.071033
     9  C    0.147343
    10  C   -0.437968
    11  C    0.100912
    12  O   -0.165048
    13  C    0.402194
    14  C    0.384515
    15  C   -0.349488
    16  O   -0.155783
    17  C    0.438634
    18  C    0.460975
    19  O    0.132427
    20  C   -0.737273
    21  O    0.297877
    22  C   -0.266314
    23  C   -0.152843
    24  O   -0.048165
    25  C    1.101763
    26  C   -0.347614
    27  C   -0.306479
    28  C    0.102343
    29  C    0.138092
    32  C   -0.300426
    62  C   -0.305356
 Sum of Mulliken charges with hydrogens summed into heavy atoms =   0.00000
 Electronic spatial extent (au):  <R**2>=          11715.4690
 Charge=              0.0000 electrons
 Dipole moment (field-independent basis, Debye):
    X=              3.7051    Y=              2.9099    Z=             -3.7090  Tot=              5.9960
 Quadrupole moment (field-independent basis, Debye-Ang):
   XX=           -187.8679   YY=           -177.4486   ZZ=           -194.8581
   XY=             -7.0636   XZ=             10.1528   YZ=              2.1521
 Traceless Quadrupole moment (field-independent basis, Debye-Ang):
   XX=             -1.1430   YY=              9.2763   ZZ=             -8.1333
   XY=             -7.0636   XZ=             10.1528   YZ=              2.1521
 Octapole moment (field-independent basis, Debye-Ang**2):
  XXX=              5.2901  YYY=             28.7481  ZZZ=            -20.9510  XYY=             17.0574
  XXY=            -33.5321  XXZ=            -27.3556  XZZ=             38.3736  YZZ=             26.3970
  YYZ=            -26.4519  XYZ=              2.7469
 Hexadecapole moment (field-independent basis, Debye-Ang**3):
 XXXX=          -8655.1528 YYYY=          -4113.3825 ZZZZ=          -3415.7882 XXXY=           -110.4980
 XXXZ=             -5.4724 YYYX=            -46.8343 YYYZ=             -8.3072 ZZZX=             24.3707
 ZZZY=             -3.5869 XXYY=          -2012.7909 XXZZ=          -2025.1259 YYZZ=          -1258.0185
 XXYZ=              1.3589 YYXZ=            -14.0024 ZZXY=            -45.8295
 N-N= 3.499706402834D+03 E-N=-1.023225412112D+04  KE= 1.381707522391D+03
 Calling FoFJK, ICntrl=      2127 FMM=T ISym2X=0 I1Cent= 0 IOpClX= 0 NMat=1 NMatS=1 NMatT=0.
 ***** Axes restored to original set *****
 -------------------------------------------------------------------
 Center     Atomic                   Forces (Hartrees/Bohr)
 Number     Number              X              Y              Z
 -------------------------------------------------------------------
      1        6           0.000056284    0.001948550   -0.001199697
      2        6           0.000701949   -0.001914222    0.001302202
      3        6          -0.000519680    0.000294496   -0.000256436
      4        6          -0.000097394    0.001245841    0.000757595
      5        6           0.000104975   -0.000512319    0.000213211
      6        6          -0.000023977   -0.000054152   -0.000110291
      7        6          -0.002239617    0.000961123    0.001790418
      8        6          -0.003135837   -0.001340036    0.000992390
      9        6           0.001446698    0.001712502    0.000090466
     10        6          -0.001748085   -0.005566628    0.003163417
     11        6          -0.002756756    0.001283678    0.006263136
     12        8           0.002838744   -0.001181634   -0.008096437
     13        6          -0.000310998    0.000293056    0.000174773
     14        6           0.000081068    0.000170807    0.000335779
     15        6           0.000038745   -0.000153779    0.000206521
     16        8           0.001911639    0.006057306   -0.004949310
     17        6           0.000420958    0.000192283   -0.000227879
     18        6           0.000173820    0.001582639   -0.001173375
     19        8           0.001944805   -0.002559970    0.002007684
     20        6          -0.000439057    0.000079365    0.000265049
     21        8           0.006385565    0.001590047    0.000146704
     22        6           0.000013437   -0.000425818   -0.000334087
     23        6           0.000905578   -0.002123550    0.000271057
     24        8          -0.000008510   -0.000020776    0.000726637
     25        6           0.001174624    0.000789670   -0.001511454
     26        6          -0.000160161   -0.000168864    0.000226868
     27        6          -0.000448652   -0.001208637    0.001876776
     28        6           0.000265584    0.000134258    0.000413989
     29        6           0.000481490   -0.000299056    0.000075855
     30        1          -0.000969210   -0.000469592    0.000766639
     31        1          -0.001148597   -0.000366929    0.000713998
     32        6          -0.000136320    0.000362875   -0.000067598
     33        1          -0.000082622   -0.000085115   -0.000866200
     34        1          -0.001664530    0.000194683    0.000203310
     35        1           0.001335438    0.001220889   -0.000488387
     36        1          -0.000075961   -0.000599968    0.001199381
     37        1          -0.000037260    0.000973952   -0.001159956
     38        1          -0.000078533   -0.001450979   -0.000217496
     39        1           0.001238624    0.000557721    0.001139904
     40        1           0.000274063    0.000499196   -0.001584529
     41        1          -0.001683699   -0.000382017    0.000277568
     42        1          -0.000619253   -0.001441189    0.000094174
     43        1           0.001473311    0.000321629   -0.000722122
     44        1          -0.005258734   -0.001154539   -0.002033918
     45        1           0.000858495   -0.000153225    0.001417938
     46        1          -0.000371964    0.001204333   -0.000875949
     47        1          -0.000960805    0.000344642   -0.001377927
     48        1          -0.000915850    0.000139533   -0.001336239
     49        1           0.001462994    0.000829040   -0.000283800
     50        1          -0.000731635    0.000323414    0.001490766
     51        1          -0.000424530    0.000454865    0.000814458
     52        1           0.000418379   -0.000983743   -0.000228347
     53        1           0.001595664    0.000097755    0.000124668
     54        1          -0.000694619   -0.001257502    0.000527777
     55        1          -0.001173080    0.001647296   -0.000425617
     56        1          -0.000921416   -0.000905875    0.000771807
     57        1           0.001518848    0.000355472    0.000586763
     58        1          -0.000120130    0.000035179   -0.001747505
     59        1          -0.000023536    0.000395333   -0.001693080
     60        1          -0.001178180   -0.000909280    0.000542264
     61        1           0.001454370   -0.000728216    0.000632130
     62        6           0.000339290   -0.000238363   -0.000208837
     63        1           0.001352392   -0.000406615   -0.000749084
     64        1          -0.000582932   -0.000830552    0.001079971
[...]
                 (A) (A) (A) (A) (A) (A) (A) (A) (A) (A) (A) (A)
                 (A) (A) (A) (A) (A) (A) (A) (A) (A) (A) (A) (A)
                 (A) (A) (A) (A) (A) (A) (A) (A) (A) (A) (A) (A)
                 (A) (A)
 The electronic state is 1-A.
 Alpha  occ. eigenvalues --  -19.17670 -19.14614 -19.13938 -19.10985 -19.10547
 Alpha  occ. eigenvalues --  -10.26316 -10.26307 -10.26026 -10.25857 -10.25376
 Alpha  occ. eigenvalues --  -10.25255 -10.24327 -10.20655 -10.19864 -10.19847
 Alpha  occ. eigenvalues --  -10.19387 -10.18734 -10.18661 -10.18401 -10.18232
 Alpha  occ. eigenvalues --  -10.17971 -10.17851 -10.17695 -10.17528 -10.17120
 Alpha  occ. eigenvalues --  -10.17073 -10.17022 -10.16845 -10.15751 -10.15673
 Alpha  occ. eigenvalues --  -10.15263  -1.10117  -1.07016  -1.04789  -1.03850
 Alpha  occ. eigenvalues --   -1.03795  -0.87715  -0.84725  -0.83410  -0.82412
 Alpha  occ. eigenvalues --   -0.81151  -0.80529  -0.77741  -0.75131  -0.74126
 Alpha  occ. eigenvalues --   -0.72993  -0.72180  -0.70842  -0.70340  -0.68809
 Alpha  occ. eigenvalues --   -0.65854  -0.65571  -0.64089  -0.63054  -0.61539
 Alpha  occ. eigenvalues --   -0.60331  -0.59494  -0.57875  -0.55952  -0.54849
 Alpha  occ. eigenvalues --   -0.53740  -0.53334  -0.51601  -0.51297  -0.50190
 Alpha  occ. eigenvalues --   -0.49109  -0.48576  -0.47678  -0.47374  -0.46768
 Alpha  occ. eigenvalues --   -0.46088  -0.45826  -0.45400  -0.44688  -0.44308
 Alpha  occ. eigenvalues --   -0.44106  -0.43828  -0.43010  -0.42505  -0.42146
 Alpha  occ. eigenvalues --   -0.41703  -0.41543  -0.41340  -0.40968  -0.40564
 Alpha  occ. eigenvalues --   -0.39958  -0.39894  -0.39565  -0.39228  -0.38874
 Alpha  occ. eigenvalues --   -0.38469  -0.38321  -0.38121  -0.37980  -0.37583
 Alpha  occ. eigenvalues --   -0.37162  -0.37016  -0.36085  -0.35567  -0.35443
 Alpha  occ. eigenvalues --   -0.34970  -0.34648  -0.34637  -0.33837  -0.32950
 Alpha  occ. eigenvalues --   -0.32445  -0.32306  -0.32056  -0.29515  -0.27772
 Alpha  occ. eigenvalues --   -0.26897  -0.25980  -0.25285  -0.24359  -0.24196
 Alpha virt. eigenvalues --   -0.05725  -0.02644  -0.01530  -0.01155  -0.00139
 Alpha virt. eigenvalues --    0.00207   0.00700   0.01042   0.01563   0.01814
 Alpha virt. eigenvalues --    0.02058   0.02487   0.03012   0.03248   0.03562
 Alpha virt. eigenvalues --    0.03647   0.04162   0.04420   0.04439   0.04749
 Alpha virt. eigenvalues --    0.04998   0.05075   0.05635   0.05929   0.06390
 Alpha virt. eigenvalues --    0.06673   0.06835   0.07019   0.07267   0.07333
 Alpha virt. eigenvalues --    0.07626   0.07887   0.08119   0.08479   0.08749
 Alpha virt. eigenvalues --    0.08932   0.09147   0.09217   0.09486   0.09724
 Alpha virt. eigenvalues --    0.10222   0.10334   0.10540   0.10786   0.11044
 Alpha virt. eigenvalues --    0.11185   0.11335   0.12018   0.12093   0.12379
 Alpha virt. eigenvalues --    0.12501   0.12714   0.12765   0.12951   0.13182
 Alpha virt. eigenvalues --    0.13454   0.13465   0.14102   0.14201   0.14893
 Alpha virt. eigenvalues --    0.15194   0.15561   0.15568   0.15908   0.15999
 Alpha virt. eigenvalues --    0.16167   0.16481   0.16725   0.17015   0.17348
 Alpha virt. eigenvalues --    0.17500   0.17723   0.17908   0.18038   0.18158
 Alpha virt. eigenvalues --    0.18384   0.18644   0.18816   0.19038   0.19061
 Alpha virt. eigenvalues --    0.19370   0.19493   0.19725   0.19804   0.19901
 Alpha virt. eigenvalues --    0.20422   0.20602   0.20732   0.20977   0.21302
 Alpha virt. eigenvalues --    0.21431   0.21726   0.21853   0.22097   0.22234
 Alpha virt. eigenvalues --    0.22277   0.22467   0.22686   0.22931   0.23113
 Alpha virt. eigenvalues --    0.23135   0.23274   0.23529   0.24030   0.24148
 Alpha virt. eigenvalues --    0.24266   0.24507   0.24545   0.24672   0.25044
 Alpha virt. eigenvalues --    0.25123   0.25235   0.25456   0.25619   0.25803
 Alpha virt. eigenvalues --    0.26109   0.26138   0.26283   0.26716   0.26756
 Alpha virt. eigenvalues --    0.27200   0.27344   0.27640   0.27840   0.28268
 Alpha virt. eigenvalues --    0.28532   0.28897   0.28978   0.29157   0.29254
 Alpha virt. eigenvalues --    0.29482   0.29842   0.30207   0.30328   0.30677
 Alpha virt. eigenvalues --    0.30723   0.31049   0.31401   0.31562   0.31929
 Alpha virt. eigenvalues --    0.32238   0.32606   0.32990   0.33525   0.33547
 Alpha virt. eigenvalues --    0.33908   0.34380   0.34578   0.34786   0.35136
 Alpha virt. eigenvalues --    0.35524   0.35620   0.36111   0.36460   0.37069
 Alpha virt. eigenvalues --    0.37380   0.37656   0.38001   0.38262   0.38566
 Alpha virt. eigenvalues --    0.39044   0.39211   0.39457   0.40051   0.40365
 Alpha virt. eigenvalues --    0.40928   0.41236   0.41626   0.41872   0.42181
 Alpha virt. eigenvalues --    0.42685   0.42899   0.43230   0.43927   0.44342
 Alpha virt. eigenvalues --    0.44456   0.44836   0.45354   0.45483   0.45635
 Alpha virt. eigenvalues --    0.46202   0.46297   0.46906   0.46933   0.47544
 Alpha virt. eigenvalues --    0.47869   0.48499   0.48607   0.49245   0.49589
 Alpha virt. eigenvalues --    0.49898   0.50405   0.50916   0.51087   0.51338
 Alpha virt. eigenvalues --    0.51941   0.52628   0.53168   0.53609   0.53743
 Alpha virt. eigenvalues --    0.54290   0.54681   0.55004   0.55105   0.55363
 Alpha virt. eigenvalues --    0.55959   0.56836   0.57163   0.57251   0.58090
 Alpha virt. eigenvalues --    0.58274   0.58487   0.58985   0.59407   0.59554
 Alpha virt. eigenvalues --    0.60648   0.61175   0.61296   0.61763   0.62159
 Alpha virt. eigenvalues --    0.62551   0.63412   0.63537   0.63958   0.64241
 Alpha virt. eigenvalues --    0.64651   0.65039   0.65411   0.65494   0.65886
 Alpha virt. eigenvalues --    0.66333   0.66355   0.66728   0.67107   0.67305
 Alpha virt. eigenvalues --    0.67407   0.67831   0.68165   0.68312   0.68836
 Alpha virt. eigenvalues --    0.69163   0.69303   0.69769   0.69927   0.70283
 Alpha virt. eigenvalues --    0.70442   0.70681   0.70807   0.71202   0.71297
 Alpha virt. eigenvalues --    0.71660   0.71938   0.72752   0.73285   0.73449
 Alpha virt. eigenvalues --    0.73558   0.74124   0.74506   0.74903   0.75066
 Alpha virt. eigenvalues --    0.75256   0.76079   0.76184   0.76709   0.77439
 Alpha virt. eigenvalues --    0.77657   0.77935   0.78327   0.78702   0.79004
 Alpha virt. eigenvalues --    0.79394   0.79538   0.80000   0.80389   0.80698
 Alpha virt. eigenvalues --    0.81196   0.81722   0.81892   0.82163   0.82435
 Alpha virt. eigenvalues --    0.83049   0.83262   0.83879   0.84113   0.84843
 Alpha virt. eigenvalues --    0.85372   0.85639   0.87586   0.88648   0.88929
 Alpha virt. eigenvalues --    0.89184   0.90539   0.91050   0.91457   0.92670
 Alpha virt. eigenvalues --    0.93044   0.94321   0.95420   0.95655   0.96437
 Alpha virt. eigenvalues --    0.97026   0.98664   0.99108   0.99892   1.00563
 Alpha virt. eigenvalues --    1.02008   1.02892   1.03721   1.05026   1.05423
 Alpha virt. eigenvalues --    1.06278   1.07964   1.08156   1.09008   1.09485
 Alpha virt. eigenvalues --    1.10194   1.12124   1.12721   1.13218   1.13961
 Alpha virt. eigenvalues --    1.14783   1.15736   1.16164   1.16851   1.18831
 Alpha virt. eigenvalues --    1.20291   1.20904   1.21759   1.22415   1.24300
 Alpha virt. eigenvalues --    1.24799   1.25455   1.25641   1.27225   1.27805
 Alpha virt. eigenvalues --    1.29078   1.29581   1.31681   1.31902   1.32317
 Alpha virt. eigenvalues --    1.33394   1.34150   1.34436   1.35093   1.35878
 Alpha virt. eigenvalues --    1.36640   1.37466   1.38238   1.38647   1.39109
 Alpha virt. eigenvalues --    1.41012   1.41933   1.42842   1.43073   1.44193
 Alpha virt. eigenvalues --    1.44302   1.45953   1.47440   1.47576   1.48728
 Alpha virt. eigenvalues --    1.50106   1.50392   1.50525   1.51603   1.52165
 Alpha virt. eigenvalues --    1.53075   1.53342   1.54342   1.54826   1.55089
 Alpha virt. eigenvalues --    1.55716   1.56697   1.56969   1.57345   1.58174
 Alpha virt. eigenvalues --    1.58236   1.58620   1.59612   1.59841   1.60415
 Alpha virt. eigenvalues --    1.60689   1.61516   1.61891   1.62563   1.62788
 Alpha virt. eigenvalues --    1.62878   1.63479   1.64111   1.64468   1.65184
 Alpha virt. eigenvalues --    1.65495   1.65859   1.66225   1.66666   1.67014
 Alpha virt. eigenvalues --    1.67318   1.67638   1.68780   1.69036   1.70059
 Alpha virt. eigenvalues --    1.70294   1.71362   1.71932   1.72161   1.72574
 Alpha virt. eigenvalues --    1.73744   1.73894   1.74618   1.75809   1.75885
 Alpha virt. eigenvalues --    1.76596   1.77606   1.78161   1.78640   1.79273
 Alpha virt. eigenvalues --    1.80204   1.81197   1.82579   1.83881   1.84077
 Alpha virt. eigenvalues --    1.84901   1.85373   1.86144   1.86773   1.87279
 Alpha virt. eigenvalues --    1.88260   1.88915   1.89040   1.91156   1.91393
 Alpha virt. eigenvalues --    1.91726   1.93735   1.93890   1.95106   1.95606
 Alpha virt. eigenvalues --    1.96067   1.98643   1.99207   1.99800   2.01964
 Alpha virt. eigenvalues --    2.02715   2.03678   2.03897   2.05102   2.06529
 Alpha virt. eigenvalues --    2.06624   2.08526   2.08983   2.10176   2.11043
 Alpha virt. eigenvalues --    2.12936   2.13343   2.14332   2.15095   2.16019
 Alpha virt. eigenvalues --    2.16640   2.18747   2.20140   2.21344   2.22390
 Alpha virt. eigenvalues --    2.23300   2.23592   2.25346   2.26261   2.27330
 Alpha virt. eigenvalues --    2.29057   2.29540   2.31849   2.32440   2.33497
 Alpha virt. eigenvalues --    2.36334   2.37723   2.38792   2.39687   2.43702
 Alpha virt. eigenvalues --    2.44761   2.47337   2.47811   2.49539   2.51279
 Alpha virt. eigenvalues --    2.52173   2.52794   2.53340   2.54051   2.54398
 Alpha virt. eigenvalues --    2.54921   2.55424   2.56184   2.56494   2.57295
 Alpha virt. eigenvalues --    2.57620   2.58658   2.59259   2.60387   2.60899
 Alpha virt. eigenvalues --    2.61527   2.62569   2.63909   2.65087   2.65706
 Alpha virt. eigenvalues --    2.66582   2.67564   2.68054   2.69483   2.70840
 Alpha virt. eigenvalues --    2.71426   2.71850   2.72360   2.73532   2.74901
 Alpha virt. eigenvalues --    2.76146   2.77887   2.79181   2.84063   2.85006
 Alpha virt. eigenvalues --    2.85732   2.86934   2.87468   2.89743   2.90765
 Alpha virt. eigenvalues --    2.91110   2.92807   2.93496   2.94841   2.95789
 Alpha virt. eigenvalues --    2.96970   2.98008   2.98843   2.99311   2.99948
 Alpha virt. eigenvalues --    3.00750   3.01394   3.02643   3.03475   3.04352
 Alpha virt. eigenvalues --    3.04828   3.06577   3.07012   3.07793   3.09135
 Alpha virt. eigenvalues --    3.09471   3.11166   3.12635   3.12962   3.14073
 Alpha virt. eigenvalues --    3.14274   3.15963   3.16215   3.16638   3.17266
 Alpha virt. eigenvalues --    3.17807   3.20060   3.20548   3.21164   3.21711
 Alpha virt. eigenvalues --    3.22970   3.25111   3.25522   3.26007   3.26501
 Alpha virt. eigenvalues --    3.26795   3.27837   3.28524   3.28645   3.29007
 Alpha virt. eigenvalues --    3.29963   3.30353   3.31955   3.33081   3.33691
 Alpha virt. eigenvalues --    3.34917   3.36080   3.37139   3.38303   3.39311
 Alpha virt. eigenvalues --    3.39850   3.41083   3.42132   3.42738   3.44357
 Alpha virt. eigenvalues --    3.46702   3.48503   3.51287   3.51953   3.53824
 Alpha virt. eigenvalues --    3.55318   3.60832   3.62463   3.65827   3.75166
 Alpha virt. eigenvalues --    3.76692   3.78913   3.79958   3.87984   3.89632
 Alpha virt. eigenvalues --    3.90172   3.97543   3.98479   4.01294   4.02857
 Alpha virt. eigenvalues --    4.05394   4.06106   4.07468   4.10651   4.12555
 Alpha virt. eigenvalues --    4.17350   4.18221   4.20330   4.21792   4.22471
 Alpha virt. eigenvalues --    4.23570   4.24740   4.29021   4.32416   4.45194
 Alpha virt. eigenvalues --    4.61620   5.13854   5.15541   5.18015   5.22007
 Alpha virt. eigenvalues --    5.23609   5.27420   5.32797   5.33302   5.41215
 Alpha virt. eigenvalues --    5.43622   5.57671   5.68274   5.74704   5.78272
 Alpha virt. eigenvalues --    5.83280  23.46239  23.47690  23.50650  23.53074
 Alpha virt. eigenvalues --   23.59704  23.64290  23.66426  23.66750  23.68666
 Alpha virt. eigenvalues --   23.70791  23.73265  23.74920  23.77174  23.78692
 Alpha virt. eigenvalues --   23.79531  23.79840  23.82401  23.84598  23.86557
 Alpha virt. eigenvalues --   23.87333  23.89662  23.90665  23.96847  24.20213
 Alpha virt. eigenvalues --   24.20879  24.23711  49.99060  49.99920  50.02423
 Alpha virt. eigenvalues --   50.03455  50.07434
          Condensed to atoms (all electrons):
 Mulliken atomic charges:
              1
     1  C   -0.574053
     2  C    0.836018
     3  C   -0.342183
     4  C   -0.416394
     5  C    1.324858
     6  C   -0.634559
     7  C   -1.222378
     8  C   -0.079105
     9  C    0.157238
    10  C   -0.449509
    11  C    0.141591
    12  O   -0.159289
    13  C    0.086330
    14  C   -0.108076
    15  C   -1.135747
    16  O   -0.152985
    17  C    0.196294
    18  C    0.485280
    19  O    0.137646
    20  C   -1.311752
    21  O    0.012739
    22  C   -0.861743
    23  C   -0.404994
    24  O   -0.043661
    25  C    1.108803
    26  C   -1.146152
    27  C   -0.769159
    28  C   -0.714781
    29  C   -0.655928
    30  H    0.226570
    31  H    0.276810
    32  C   -1.066677
    33  H    0.205067
    34  H    0.242897
    35  H    0.277703
    36  H    0.246247
    37  H    0.254896
    38  H    0.249060
    39  H    0.258873
    40  H    0.278318
    41  H    0.275131
    42  H    0.269279
    43  H    0.281208
    44  H    0.276847
    45  H    0.295339
    46  H    0.281917
    47  H    0.249535
    48  H    0.260757
    49  H    0.268154
    50  H    0.259347
    51  H    0.223414
    52  H    0.243375
    53  H    0.261439
    54  H    0.248127
    55  H    0.307073
    56  H    0.262978
    57  H    0.267349
    58  H    0.262605
    59  H    0.257667
    60  H    0.255229
    61  H    0.256909
    62  C   -1.040223
    63  H    0.247850
    64  H    0.235333
    65  H    0.239249
 Sum of Mulliken atomic charges =   0.00000
 Mulliken charges with hydrogens summed into heavy atoms:
              1
     1  C   -0.368986
     2  C    0.836018
     3  C   -0.065373
     4  C   -0.416394
     5  C    1.324858
     6  C   -0.113958
     7  C   -1.222378
     8  C   -0.079105
     9  C    0.157238
    10  C   -0.449509
    11  C    0.141591
    12  O   -0.159289
    13  C    0.332576
    14  C    0.395880
    15  C   -0.323425
    16  O   -0.152985
    17  C    0.422864
    18  C    0.485280
    19  O    0.137646
    20  C   -0.761266
    21  O    0.289586
    22  C   -0.284487
    23  C   -0.155460
    24  O   -0.043661
    25  C    1.108803
    26  C   -0.357894
    27  C   -0.302370
    28  C    0.101859
    29  C    0.137004
    32  C   -0.296871
    62  C   -0.317791
 Sum of Mulliken charges with hydrogens summed into heavy atoms =   0.00000
 Electronic spatial extent (au):  <R**2>=          11733.5245
 Charge=              0.0000 electrons
 Dipole moment (field-independent basis, Debye):
    X=              3.6555    Y=              2.7487    Z=             -3.6312  Tot=              5.8398
 Quadrupole moment (field-independent basis, Debye-Ang):
   XX=           -187.8490   YY=           -176.8810   ZZ=           -194.5186
   XY=             -6.5224   XZ=             10.0362   YZ=              1.6511
 Traceless Quadrupole moment (field-independent basis, Debye-Ang):
   XX=             -1.4328   YY=              9.5352   ZZ=             -8.1024
   XY=             -6.5224   XZ=             10.0362   YZ=              1.6511
 Octapole moment (field-independent basis, Debye-Ang**2):
  XXX=              3.1009  YYY=             29.6415  ZZZ=            -20.6698  XYY=             16.5118
  XXY=            -34.4933  XXZ=            -26.8786  XZZ=             37.7027  YZZ=             25.2620
  YYZ=            -26.2880  XYZ=              4.5641
 Hexadecapole moment (field-independent basis, Debye-Ang**3):
 XXXX=          -8650.0635 YYYY=          -4164.1777 ZZZZ=          -3372.2785 XXXY=           -106.1867
 XXXZ=             -1.9013 YYYX=            -50.9150 YYYZ=             -7.9104 ZZZX=             22.9281
 ZZZY=             -6.1930 XXYY=          -2020.1365 XXZZ=          -2016.2980 YYZZ=          -1260.0988
 XXYZ=             -3.1939 YYXZ=            -14.5286 ZZXY=            -42.0158
 N-N= 3.499127041580D+03 E-N=-1.023130174813D+04  KE= 1.381920682471D+03
 1\1\GINC-B0606\FOpt\RB3LYP\6-311+G(d)\C26H34O5\CAOFEI\13-Apr-2021\0\\#
  opt b3lyp/6-311+g(d) geom=connectivity\\Title Card Required\\0,1\C,1.
 7066833032,0.6920584741,3.0921144909\C,1.6214671945,1.8228898815,2.388
 4688663\C,1.6858256555,1.8163277914,0.877127808\C,1.566404116,0.420063
 8546,0.191725124\C,1.2763040595,-0.8230279503,1.0755118842\C,1.8903769
 73,-0.6698273891,2.487386458\C,0.5074049334,0.6299840632,-0.9251033854
 \C,-0.9070284938,0.3765798743,-0.4540122013\C,-1.2613187928,-0.5070349
 541,0.4994438729\C,-0.2146067642,-1.2262667502,1.2352757831\C,-2.70475
 36848,-0.6790352839,0.9339968971\O,-3.0441929776,-0.3217925835,2.03929
 76562\C,-3.6630954563,-1.3178068281,-0.0670507284\C,-5.1284899334,-1.0
 833783793,0.327270371\C,-3.3026446106,-2.811830091,-0.2128317183\O,-0.
 4864932523,-2.1494948014,1.9843909351\C,0.4010907703,2.1436296232,-1.2
 064055346\C,-1.0273774107,2.2929860298,-1.7803661536\O,-1.7646390972,1
 .2042274989,-1.0714701811\C,0.6335977396,2.7349209429,0.196117115\O,0.
 7300408957,-0.1895012957,-2.0591560541\C,2.0132342287,-1.943658226,0.2
 998848224\C,3.2559063039,-1.2221739891,-0.2356803542\O,2.8260671643,0.
 1332438295,-0.4683884378\C,3.8890702482,-1.8289701082,-1.4671526229\C,
 4.2472823705,-3.2877121144,-1.3430225766\C,4.1584867507,-1.1131053733,
 -2.5604310753\C,-1.1034293527,2.0166933418,-3.2811254784\C,-1.75018287
 53,3.5901146809,-1.4366148323\H,1.1586832629,2.4767449876,-1.919593323
 7\H,2.6790106305,2.1799108559,0.5842360675\C,1.5248649296,3.1709262759
 ,3.0553769345\H,1.6854109374,0.7428055595,4.1785798266\H,2.9640841652,
 -0.895964014,2.444565496\H,1.4514835792,-1.4398299587,3.12469051\H,-3.
 4697277993,-0.8350418134,-1.0344532103\H,-5.335789818,-1.6056572429,1.
 2666173995\H,-5.2637412264,-0.0198958492,0.5483601302\H,-3.9053914104,
 -3.2781827518,-0.9948623865\H,-3.4791696416,-3.3486295605,0.72295708\H
 ,-2.2530831461,-2.9495321364,-0.4816872174\H,0.9565702545,3.7769552419
 ,0.164431582\H,-0.2940566939,2.7063444623,0.7727416024\H,1.6915032507,
 -0.2446725847,-2.1818833957\H,1.4011912409,-2.3098600582,-0.5277523115
 \H,2.25153974,-2.7871790483,0.9491688986\H,4.0284095918,-1.1935003748,
 0.5470233991\H,4.8789208924,-3.4671740856,-0.4652926162\H,3.357920933,
 -3.9146962234,-1.2223950298\H,4.7899867196,-3.6380518936,-2.2223807964
 \H,4.6296405101,-1.5673949939,-3.4261908487\H,3.9461654126,-0.05188155
 69,-2.6181861284\H,-2.1474828498,1.9699377025,-3.6001601872\H,-0.61878
 18973,2.82633309,-3.8346541387\H,-0.6133527677,1.0792313124,-3.5385752
 959\H,-1.2264354695,4.4392427717,-1.8844507491\H,-2.7656478146,3.57278
 84277,-1.8383549111\H,-1.8173732283,3.7552545788,-0.3615692218\H,1.565
 3164305,3.0769202772,4.1422751494\H,2.347862841,3.8265702301,2.7447834
 868\H,0.5963274108,3.6935398825,2.802959958\C,-6.1365711308,-1.5087102
 275,-0.74394453\H,-7.1552176577,-1.2515076773,-0.4398029355\H,-5.94468
 14831,-1.006832648,-1.6985687719\H,-6.1196667031,-2.5861107252,-0.9287
 522648\\Version=EM64L-G09RevB.01\State=1-A\HF=-1387.649679\RMSD=4.804e
 -09\RMSF=3.989e-06\Dipole=1.4432452,1.0868853,-1.4193254\Quadrupole=-1
 .1201206,7.0711523,-5.9510317,-4.8841617,7.4689886,1.2494697\PG=C01 [X
 (C26H34O5)]\\@


 The most important thing in communication is to hear what isn't being said.
 -- Peter F. Drucker
 Job cpu time:  1 days  3 hours 21 minutes  9.1 seconds.
 File lengths (MBytes):  RWF=    372 Int=      0 D2E=      0 Chk=     38 Scr=      1
 Normal termination of Gaussian 09 at Tue Apr 13 17:14:11 2021.
