 Entering Gaussian System, Link 0=g09
 Initial command:
 /public/software/g09/g09/l1.exe /tmp/Gau-13304.inp -scrdir=/tmp/
 Entering Link 1 = /public/software/g09/g09/l1.exe PID=     13305.
  
 Copyright (c) 1988,1990,1992,1993,1995,1998,2003,2009,2010,
            Gaussian, Inc.  All Rights Reserved.
  
 This is part of the Gaussian(R) 09 program.  It is based on
 the Gaussian(R) 03 system (copyright 2003, Gaussian, Inc.),
 the Gaussian(R) 98 system (copyright 1998, Gaussian, Inc.),
 the Gaussian(R) 94 system (copyright 1995, Gaussian, Inc.),
 the Gaussian 92(TM) system (copyright 1992, Gaussian, Inc.),
 the Gaussian 90(TM) system (copyright 1990, Gaussian, Inc.),
 the Gaussian 88(TM) system (copyright 1988, Gaussian, Inc.),
 the Gaussian 86(TM) system (copyright 1986, Carnegie Mellon
 University), and the Gaussian 82(TM) system (copyright 1983,
 Carnegie Mellon University). Gaussian is a federally registered
 trademark of Gaussian, Inc.
  
 This software contains proprietary and confidential information,
 including trade secrets, belonging to Gaussian, Inc.
  
 This software is provided under written license and may be
 used, copied, transmitted, or stored only in accord with that
 written license.
  
 The following legend is applicable only to US Government
 contracts under FAR:
  
                    RESTRICTED RIGHTS LEGEND
  
 Use, reproduction and disclosure by the US Government is
 subject to restrictions as set forth in subparagraphs (a)
 and (c) of the Commercial Computer Software - Restricted
 Rights clause in FAR 52.227-19.
  
 Gaussian, Inc.
 340 Quinnipiac St., Bldg. 40, Wallingford CT 06492
  
  
 ---------------------------------------------------------------
 Warning -- This program may not be used in any manner that
 competes with the business of Gaussian, Inc. or will provide
 assistance to any competitor of Gaussian, Inc.  The licensee
 of this program is prohibited from giving any competitor of
 Gaussian, Inc. access to this program.  By using this program,
 the user acknowledges that Gaussian, Inc. is engaged in the
 business of creating and licensing software in the field of
 computational chemistry and represents and warrants to the
 licensee that it is not a competitor of Gaussian, Inc. and that
 it will not use this program in any manner prohibited above.
 ---------------------------------------------------------------
  

 Cite this work as:
 Gaussian 09, Revision B.01,
 M. J. Frisch, G. W. Trucks, H. B. Schlegel, G. E. Scuseria, 
 M. A. Robb, J. R. Cheeseman, G. Scalmani, V. Barone, B. Mennucci, 
 G. A. Petersson, H. Nakatsuji, M. Caricato, X. Li, H. P. Hratchian, 
 A. F. Izmaylov, J. Bloino, G. Zheng, J. L. Sonnenberg, M. Hada, 
 M. Ehara, K. Toyota, R. Fukuda, J. Hasegawa, M. Ishida, T. Nakajima, 
 Y. Honda, O. Kitao, H. Nakai, T. Vreven, J. A. Montgomery, Jr., 
 J. E. Peralta, F. Ogliaro, M. Bearpark, J. J. Heyd, E. Brothers, 
 K. N. Kudin, V. N. Staroverov, T. Keith, R. Kobayashi, J. Normand, 
 K. Raghavachari, A. Rendell, J. C. Burant, S. S. Iyengar, J. Tomasi, 
 M. Cossi, N. Rega, J. M. Millam, M. Klene, J. E. Knox, J. B. Cross, 
 V. Bakken, C. Adamo, J. Jaramillo, R. Gomperts, R. E. Stratmann, 
 O. Yazyev, A. J. Austin, R. Cammi, C. Pomelli, J. W. Ochterski, 
 R. L. Martin, K. Morokuma, V. G. Zakrzewski, G. A. Voth, 
 P. Salvador, J. J. Dannenberg, S. Dapprich, A. D. Daniels, 
 O. Farkas, J. B. Foresman, J. V. Ortiz, J. Cioslowski, 
 and D. J. Fox, Gaussian, Inc., Wallingford CT, 2010.
 
 ******************************************
 Gaussian 09:  EM64L-G09RevB.01 12-Aug-2010
                13-Apr-2021 
 ******************************************
 %mem=600MW
 %nprocshared=10
 Will use up to   10 processors via shared memory.
 ----------------------------------------
 # opt b3lyp/6-311+g(d) geom=connectivity
 ----------------------------------------
 1/14=-1,18=20,19=15,26=3,38=1,57=2/1,3;
 2/9=110,12=2,17=6,18=5,40=1/2;
 3/5=4,6=6,7=11,11=2,16=1,25=1,30=1,71=1,74=-5/1,2,3;
 4//1;
 5/5=2,38=5/2;
 6/7=2,8=2,9=2,10=2,28=1/1;
 7//1,2,3,16;
 1/14=-1,18=20,19=15/3(2);
 2/9=110/2;
 99//99;
 2/9=110/2;
 3/5=4,6=6,7=11,11=2,16=1,25=1,30=1,71=1,74=-5/1,2,3;
 4/5=5,16=3/1;
 5/5=2,38=5/2;
 7//1,2,3,16;
 1/14=-1,18=20,19=15/3(-5);
 2/9=110/2;
 6/7=2,8=2,9=2,10=2,19=2,28=1/1;
 99/9=1/99;
 -------------------
 Title Card Required
 -------------------
 Symbolic Z-matrix:
 Charge =  0 Multiplicity = 1
 C                     1.46187  -0.05844   3.23317 
 C                     1.5894    1.17954   2.74186 
 C                     1.76974   1.42288   1.25799 
 C                     1.49759   0.19867   0.32814 
 C                     0.96574  -1.11567   0.95907 
 C                     1.49352  -1.31011   2.40074 
 C                     0.56725   0.75612  -0.78061 
 C                    -0.90377   0.65403  -0.43345 
 C                    -1.4596   -0.35406   0.28883 
 C                    -0.57751  -1.30248   0.97455 
 C                    -2.95285  -0.43002   0.49455 
 O                    -3.58363   0.57074   0.7917 
 C                    -3.67155  -1.76363   0.25948 
 C                    -4.71304  -1.58132  -0.8674 
 C                    -4.33872  -2.22674   1.56641 
 O                    -1.02987  -2.2526    1.60983 
 C                     0.7048    2.29284  -0.79774 
 C                    -0.64068   2.74858  -1.41369 
 O                    -1.5757    1.68522  -0.94859 
 C                     0.91281   2.59765   0.6997 
 O                     0.76326   0.10452  -2.02196 
 C                     1.57402  -2.18731   0.01478 
 C                     2.9455   -1.60587  -0.31691 
 O                     2.74056  -0.16291  -0.32695 
 C                     3.61957  -2.00207  -1.61485 
 C                     4.93382  -1.30797  -1.88143 
 C                     3.11659  -2.92253  -2.44333 
 C                    -0.63444   2.72996  -2.94351 
 C                    -1.2088    4.06353  -0.88724 
 H                     1.55767   2.61809  -1.40153 
 H                     2.82572   1.67355   1.08163 
 C                     1.63236   2.39168   3.63948 
 H                     1.36967  -0.19144   4.31034 
 H                     2.5252   -1.69161   2.36848 
 H                     0.89339  -2.09946   2.86244 
 H                    -2.93665  -2.51521  -0.04655 
 H                    -5.27745  -2.51891  -0.95976 
 H                    -5.42644  -0.80972  -0.55372 
 H                    -4.90413  -3.15064   1.39786 
 H                    -5.029    -1.45945   1.9329 
 H                    -3.58555  -2.42002   2.3352 
 H                     1.38514   3.56912   0.87064 
 H                    -0.05378   2.61483   1.21492 
 H                     1.72458  -0.07213  -2.05133 
 H                     0.9658   -2.27429  -0.88981 
 H                     1.62767  -3.16707   0.49676 
 H                     3.64986  -1.82111   0.50198 
 H                     4.80647  -0.21959  -1.89862 
 H                     5.6587   -1.52535  -1.08485 
 H                     5.36857  -1.62536  -2.83375 
 H                     3.6412   -3.20298  -3.35324 
 H                     2.18166  -3.43917  -2.25168 
 H                    -1.65226   2.87367  -3.32039 
 H                    -0.0112    3.5476   -3.32378 
 H                    -0.24258   1.78395  -3.32117 
 H                    -0.54399   4.89129  -1.15851 
 H                    -2.18989   4.25194  -1.33397 
 H                    -1.32931   4.05207   0.19814 
 H                     1.56409   2.10416   4.69311 
 H                     2.56771   2.95303   3.50198 
 H                     0.81324   3.09128   3.4296 
 C                    -4.11332  -1.20825  -2.2282 
 H                    -4.89388  -1.14542  -2.9952 
 H                    -3.60879  -0.23567  -2.19233 
 H                    -3.38012  -1.95391  -2.56037 
 

 GradGradGradGradGradGradGradGradGradGradGradGradGradGradGradGradGradGrad
 Berny optimization.
 Initialization pass.
                           ----------------------------
                           !    Initial Parameters    !
                           ! (Angstroms and Degrees)  !
 --------------------------                            --------------------------
 ! Name  Definition              Value          Derivative Info.                !
 --------------------------------------------------------------------------------
 ! R1    R(1,2)                  1.338          estimate D2E/DX2                !
 ! R2    R(1,6)                  1.5035         estimate D2E/DX2                !
 ! R3    R(1,33)                 1.0893         estimate D2E/DX2                !
 ! R4    R(2,3)                  1.5145         estimate D2E/DX2                !
 ! R5    R(2,32)                 1.5089         estimate D2E/DX2                !
 ! R6    R(3,4)                  1.5612         estimate D2E/DX2                !
 ! R7    R(3,20)                 1.5576         estimate D2E/DX2                !
 ! R8    R(3,31)                 1.0996         estimate D2E/DX2                !
 ! R9    R(4,5)                  1.5519         estimate D2E/DX2                !
 ! R10   R(4,7)                  1.551          estimate D2E/DX2                !
 ! R11   R(4,24)                 1.4508         estimate D2E/DX2                !
 ! R12   R(5,6)                  1.5475         estimate D2E/DX2                !
 ! R13   R(5,10)                 1.5546         estimate D2E/DX2                !
 ! R14   R(5,22)                 1.5525         estimate D2E/DX2                !
 ! R15   R(6,34)                 1.1004         estimate D2E/DX2                !
 ! R16   R(6,35)                 1.0938         estimate D2E/DX2                !
 ! R17   R(7,8)                  1.5149         estimate D2E/DX2                !
 ! R18   R(7,17)                 1.543          estimate D2E/DX2                !
 ! R19   R(7,21)                 1.4156         estimate D2E/DX2                !
 ! R20   R(8,9)                  1.359          estimate D2E/DX2                !
 ! R21   R(8,19)                 1.3342         estimate D2E/DX2                !
 ! R22   R(9,10)                 1.4655         estimate D2E/DX2                !
 ! R23   R(9,11)                 1.5093         estimate D2E/DX2                !
 ! R24   R(10,16)                1.2292         estimate D2E/DX2                !
 ! R25   R(11,12)                1.2197         estimate D2E/DX2                !
 ! R26   R(11,13)                1.5331         estimate D2E/DX2                !
 ! R27   R(13,14)                1.5453         estimate D2E/DX2                !
 ! R28   R(13,15)                1.5387         estimate D2E/DX2                !
 ! R29   R(13,36)                1.0948         estimate D2E/DX2                !
 ! R30   R(14,37)                1.0983         estimate D2E/DX2                !
 ! R31   R(14,38)                1.0967         estimate D2E/DX2                !
 ! R32   R(14,62)                1.5332         estimate D2E/DX2                !
 ! R33   R(15,39)                1.0962         estimate D2E/DX2                !
 ! R34   R(15,40)                1.0952         estimate D2E/DX2                !
 ! R35   R(15,41)                1.0935         estimate D2E/DX2                !
 ! R36   R(17,18)                1.5483         estimate D2E/DX2                !
 ! R37   R(17,20)                1.5422         estimate D2E/DX2                !
 ! R38   R(17,30)                1.0944         estimate D2E/DX2                !
 ! R39   R(18,19)                1.4904         estimate D2E/DX2                !
 ! R40   R(18,28)                1.5299         estimate D2E/DX2                !
 ! R41   R(18,29)                1.5261         estimate D2E/DX2                !
 ! R42   R(20,42)                1.0937         estimate D2E/DX2                !
 ! R43   R(20,43)                1.0955         estimate D2E/DX2                !
 ! R44   R(21,44)                0.9779         estimate D2E/DX2                !
 ! R45   R(22,23)                1.5261         estimate D2E/DX2                !
 ! R46   R(22,45)                1.0935         estimate D2E/DX2                !
 ! R47   R(22,46)                1.0932         estimate D2E/DX2                !
 ! R48   R(23,24)                1.4575         estimate D2E/DX2                !
 ! R49   R(23,25)                1.5153         estimate D2E/DX2                !
 ! R50   R(23,47)                1.1014         estimate D2E/DX2                !
 ! R51   R(25,26)                1.51           estimate D2E/DX2                !
 ! R52   R(25,27)                1.3366         estimate D2E/DX2                !
 ! R53   R(26,48)                1.0959         estimate D2E/DX2                !
 ! R54   R(26,49)                1.0987         estimate D2E/DX2                !
 ! R55   R(26,50)                1.0939         estimate D2E/DX2                !
 ! R56   R(27,51)                1.0871         estimate D2E/DX2                !
 ! R57   R(27,52)                1.0852         estimate D2E/DX2                !
 ! R58   R(28,53)                1.0948         estimate D2E/DX2                !
 ! R59   R(28,54)                1.0962         estimate D2E/DX2                !
 ! R60   R(28,55)                1.0914         estimate D2E/DX2                !
 ! R61   R(29,56)                1.0958         estimate D2E/DX2                !
 ! R62   R(29,57)                1.0944         estimate D2E/DX2                !
 ! R63   R(29,58)                1.0921         estimate D2E/DX2                !
 ! R64   R(32,59)                1.0943         estimate D2E/DX2                !
 ! R65   R(32,60)                1.0995         estimate D2E/DX2                !
 ! R66   R(32,61)                1.0975         estimate D2E/DX2                !
 ! R67   R(62,63)                1.0961         estimate D2E/DX2                !
 ! R68   R(62,64)                1.0962         estimate D2E/DX2                !
 ! R69   R(62,65)                1.0972         estimate D2E/DX2                !
 ! A1    A(2,1,6)              124.3989         estimate D2E/DX2                !
 ! A2    A(2,1,33)             118.9574         estimate D2E/DX2                !
 ! A3    A(6,1,33)             116.5924         estimate D2E/DX2                !
 ! A4    A(1,2,3)              121.3185         estimate D2E/DX2                !
 ! A5    A(1,2,32)             121.8398         estimate D2E/DX2                !
 ! A6    A(3,2,32)             116.7685         estimate D2E/DX2                !
 ! A7    A(2,3,4)              115.9006         estimate D2E/DX2                !
 ! A8    A(2,3,20)             114.0082         estimate D2E/DX2                !
 ! A9    A(2,3,31)             107.9469         estimate D2E/DX2                !
 ! A10   A(4,3,20)             106.3814         estimate D2E/DX2                !
 ! A11   A(4,3,31)             104.5156         estimate D2E/DX2                !
 ! A12   A(20,3,31)            107.3933         estimate D2E/DX2                !
 ! A13   A(3,4,5)              118.7967         estimate D2E/DX2                !
 ! A14   A(3,4,7)              104.3889         estimate D2E/DX2                !
 ! A15   A(3,4,24)             108.3617         estimate D2E/DX2                !
 ! A16   A(5,4,7)              112.9203         estimate D2E/DX2                !
 ! A17   A(5,4,24)             105.4327         estimate D2E/DX2                !
 ! A18   A(7,4,24)             106.3015         estimate D2E/DX2                !
 ! A19   A(4,5,6)              111.6094         estimate D2E/DX2                !
 ! A20   A(4,5,10)             116.4888         estimate D2E/DX2                !
 ! A21   A(4,5,22)             101.7154         estimate D2E/DX2                !
 ! A22   A(6,5,10)             108.3121         estimate D2E/DX2                !
 ! A23   A(6,5,22)             110.2609         estimate D2E/DX2                !
 ! A24   A(10,5,22)            108.1839         estimate D2E/DX2                !
 ! A25   A(1,6,5)              113.8287         estimate D2E/DX2                !
 ! A26   A(1,6,34)             108.9399         estimate D2E/DX2                !
 ! A27   A(1,6,35)             110.8254         estimate D2E/DX2                !
 ! A28   A(5,6,34)             109.6328         estimate D2E/DX2                !
 ! A29   A(5,6,35)             107.2646         estimate D2E/DX2                !
 ! A30   A(34,6,35)            106.0562         estimate D2E/DX2                !
 ! A31   A(4,7,8)              113.23           estimate D2E/DX2                !
 ! A32   A(4,7,17)             108.2051         estimate D2E/DX2                !
 ! A33   A(4,7,21)             112.2327         estimate D2E/DX2                !
 ! A34   A(8,7,17)              98.9882         estimate D2E/DX2                !
 ! A35   A(8,7,21)             107.7221         estimate D2E/DX2                !
 ! A36   A(17,7,21)            115.8713         estimate D2E/DX2                !
 ! A37   A(7,8,9)              124.6771         estimate D2E/DX2                !
 ! A38   A(7,8,19)             110.3933         estimate D2E/DX2                !
 ! A39   A(9,8,19)             124.9263         estimate D2E/DX2                !
 ! A40   A(8,9,10)             118.8518         estimate D2E/DX2                !
 ! A41   A(8,9,11)             120.9598         estimate D2E/DX2                !
 ! A42   A(10,9,11)            119.9445         estimate D2E/DX2                !
 ! A43   A(5,10,9)             121.0027         estimate D2E/DX2                !
 ! A44   A(5,10,16)            117.604          estimate D2E/DX2                !
 ! A45   A(9,10,16)            121.3677         estimate D2E/DX2                !
 ! A46   A(9,11,12)            120.2374         estimate D2E/DX2                !
 ! A47   A(9,11,13)            119.1241         estimate D2E/DX2                !
 ! A48   A(12,11,13)           120.5738         estimate D2E/DX2                !
 ! A49   A(11,13,14)           108.9752         estimate D2E/DX2                !
 ! A50   A(11,13,15)           109.5633         estimate D2E/DX2                !
 ! A51   A(11,13,36)           108.9872         estimate D2E/DX2                !
 ! A52   A(14,13,15)           111.2643         estimate D2E/DX2                !
 ! A53   A(14,13,36)           109.2423         estimate D2E/DX2                !
 ! A54   A(15,13,36)           108.7752         estimate D2E/DX2                !
 ! A55   A(13,14,37)           107.878          estimate D2E/DX2                !
 ! A56   A(13,14,38)           108.2316         estimate D2E/DX2                !
 ! A57   A(13,14,62)           114.3516         estimate D2E/DX2                !
 ! A58   A(37,14,38)           106.8812         estimate D2E/DX2                !
 ! A59   A(37,14,62)           109.519          estimate D2E/DX2                !
 ! A60   A(38,14,62)           109.7015         estimate D2E/DX2                !
 ! A61   A(13,15,39)           110.2863         estimate D2E/DX2                !
 ! A62   A(13,15,40)           110.2821         estimate D2E/DX2                !
 ! A63   A(13,15,41)           110.5918         estimate D2E/DX2                !
 ! A64   A(39,15,40)           108.4712         estimate D2E/DX2                !
 ! A65   A(39,15,41)           108.3238         estimate D2E/DX2                !
 ! A66   A(40,15,41)           108.8252         estimate D2E/DX2                !
 ! A67   A(7,17,18)            102.7146         estimate D2E/DX2                !
 ! A68   A(7,17,20)            101.4247         estimate D2E/DX2                !
 ! A69   A(7,17,30)            111.8137         estimate D2E/DX2                !
 ! A70   A(18,17,20)           116.4416         estimate D2E/DX2                !
 ! A71   A(18,17,30)           111.7307         estimate D2E/DX2                !
 ! A72   A(20,17,30)           111.8283         estimate D2E/DX2                !
 ! A73   A(17,18,19)           102.1823         estimate D2E/DX2                !
 ! A74   A(17,18,28)           112.9951         estimate D2E/DX2                !
 ! A75   A(17,18,29)           116.0958         estimate D2E/DX2                !
 ! A76   A(19,18,28)           107.8128         estimate D2E/DX2                !
 ! A77   A(19,18,29)           105.876          estimate D2E/DX2                !
 ! A78   A(28,18,29)           110.912          estimate D2E/DX2                !
 ! A79   A(8,19,18)            110.8517         estimate D2E/DX2                !
 ! A80   A(3,20,17)            105.8527         estimate D2E/DX2                !
 ! A81   A(3,20,42)            112.1067         estimate D2E/DX2                !
 ! A82   A(3,20,43)            109.1893         estimate D2E/DX2                !
 ! A83   A(17,20,42)           112.6792         estimate D2E/DX2                !
 ! A84   A(17,20,43)           109.9223         estimate D2E/DX2                !
 ! A85   A(42,20,43)           107.0754         estimate D2E/DX2                !
 ! A86   A(7,21,44)            104.2184         estimate D2E/DX2                !
 ! A87   A(5,22,23)            102.7866         estimate D2E/DX2                !
 ! A88   A(5,22,45)            109.8858         estimate D2E/DX2                !
 ! A89   A(5,22,46)            111.6974         estimate D2E/DX2                !
 ! A90   A(23,22,45)           110.5094         estimate D2E/DX2                !
 ! A91   A(23,22,46)           113.1523         estimate D2E/DX2                !
 ! A92   A(45,22,46)           108.7064         estimate D2E/DX2                !
 ! A93   A(22,23,24)           104.6156         estimate D2E/DX2                !
 ! A94   A(22,23,25)           119.0995         estimate D2E/DX2                !
 ! A95   A(22,23,47)           109.7959         estimate D2E/DX2                !
 ! A96   A(24,23,25)           108.3925         estimate D2E/DX2                !
 ! A97   A(24,23,47)           106.7701         estimate D2E/DX2                !
 ! A98   A(25,23,47)           107.5346         estimate D2E/DX2                !
 ! A99   A(4,24,23)            111.3524         estimate D2E/DX2                !
 ! A100  A(23,25,26)           114.7218         estimate D2E/DX2                !
 ! A101  A(23,25,27)           122.9284         estimate D2E/DX2                !
 ! A102  A(26,25,27)           122.3197         estimate D2E/DX2                !
 ! A103  A(25,26,48)           110.9862         estimate D2E/DX2                !
 ! A104  A(25,26,49)           110.8104         estimate D2E/DX2                !
 ! A105  A(25,26,50)           111.4825         estimate D2E/DX2                !
 ! A106  A(48,26,49)           106.5296         estimate D2E/DX2                !
 ! A107  A(48,26,50)           108.7035         estimate D2E/DX2                !
 ! A108  A(49,26,50)           108.1521         estimate D2E/DX2                !
 ! A109  A(25,27,51)           120.9878         estimate D2E/DX2                !
 ! A110  A(25,27,52)           122.8578         estimate D2E/DX2                !
 ! A111  A(51,27,52)           116.1506         estimate D2E/DX2                !
 ! A112  A(18,28,53)           109.8056         estimate D2E/DX2                !
 ! A113  A(18,28,54)           109.8846         estimate D2E/DX2                !
 ! A114  A(18,28,55)           110.979          estimate D2E/DX2                !
 ! A115  A(53,28,54)           108.1337         estimate D2E/DX2                !
 ! A116  A(53,28,55)           109.1746         estimate D2E/DX2                !
 ! A117  A(54,28,55)           108.8061         estimate D2E/DX2                !
 ! A118  A(18,29,56)           109.8547         estimate D2E/DX2                !
 ! A119  A(18,29,57)           109.9541         estimate D2E/DX2                !
 ! A120  A(18,29,58)           112.0163         estimate D2E/DX2                !
 ! A121  A(56,29,57)           108.2279         estimate D2E/DX2                !
 ! A122  A(56,29,58)           108.7179         estimate D2E/DX2                !
 ! A123  A(57,29,58)           107.9731         estimate D2E/DX2                !
 ! A124  A(2,32,59)            111.0953         estimate D2E/DX2                !
 ! A125  A(2,32,60)            111.0977         estimate D2E/DX2                !
 ! A126  A(2,32,61)            112.1527         estimate D2E/DX2                !
 ! A127  A(59,32,60)           107.9162         estimate D2E/DX2                !
 ! A128  A(59,32,61)           107.7619         estimate D2E/DX2                !
 ! A129  A(60,32,61)           106.5931         estimate D2E/DX2                !
 ! A130  A(14,62,63)           110.883          estimate D2E/DX2                !
 ! A131  A(14,62,64)           111.5224         estimate D2E/DX2                !
 ! A132  A(14,62,65)           111.3901         estimate D2E/DX2                !
 ! A133  A(63,62,64)           107.4442         estimate D2E/DX2                !
 ! A134  A(63,62,65)           107.6359         estimate D2E/DX2                !
 ! A135  A(64,62,65)           107.7755         estimate D2E/DX2                !
 ! D1    D(6,1,2,3)              0.5416         estimate D2E/DX2                !
 ! D2    D(6,1,2,32)          -176.246          estimate D2E/DX2                !
 ! D3    D(33,1,2,3)           177.8431         estimate D2E/DX2                !
 ! D4    D(33,1,2,32)            1.0555         estimate D2E/DX2                !
 ! D5    D(2,1,6,5)            -29.938          estimate D2E/DX2                !
 ! D6    D(2,1,6,34)            92.7374         estimate D2E/DX2                !
 ! D7    D(2,1,6,35)          -150.943          estimate D2E/DX2                !
 ! D8    D(33,1,6,5)           152.7024         estimate D2E/DX2                !
 ! D9    D(33,1,6,34)          -84.6222         estimate D2E/DX2                !
 ! D10   D(33,1,6,35)           31.6974         estimate D2E/DX2                !
 ! D11   D(1,2,3,4)             12.4217         estimate D2E/DX2                !
 ! D12   D(1,2,3,20)           136.4426         estimate D2E/DX2                !
 ! D13   D(1,2,3,31)          -104.3324         estimate D2E/DX2                !
 ! D14   D(32,2,3,4)          -170.6347         estimate D2E/DX2                !
 ! D15   D(32,2,3,20)          -46.6137         estimate D2E/DX2                !
 ! D16   D(32,2,3,31)           72.6112         estimate D2E/DX2                !
 ! D17   D(1,2,32,59)            0.9585         estimate D2E/DX2                !
 ! D18   D(1,2,32,60)          121.1076         estimate D2E/DX2                !
 ! D19   D(1,2,32,61)         -119.7117         estimate D2E/DX2                !
 ! D20   D(3,2,32,59)         -175.9679         estimate D2E/DX2                !
 ! D21   D(3,2,32,60)          -55.8189         estimate D2E/DX2                !
 ! D22   D(3,2,32,61)           63.3619         estimate D2E/DX2                !
 ! D23   D(2,3,4,5)              4.7157         estimate D2E/DX2                !
 ! D24   D(2,3,4,7)            131.5727         estimate D2E/DX2                !
 ! D25   D(2,3,4,24)          -115.4429         estimate D2E/DX2                !
 ! D26   D(20,3,4,5)          -123.1769         estimate D2E/DX2                !
 ! D27   D(20,3,4,7)             3.6802         estimate D2E/DX2                !
 ! D28   D(20,3,4,24)          116.6646         estimate D2E/DX2                !
 ! D29   D(31,3,4,5)           123.3723         estimate D2E/DX2                !
 ! D30   D(31,3,4,7)          -109.7706         estimate D2E/DX2                !
 ! D31   D(31,3,4,24)            3.2138         estimate D2E/DX2                !
 ! D32   D(2,3,20,17)         -154.3844         estimate D2E/DX2                !
 ! D33   D(2,3,20,42)           82.3881         estimate D2E/DX2                !
 ! D34   D(2,3,20,43)          -36.0978         estimate D2E/DX2                !
 ! D35   D(4,3,20,17)          -25.3826         estimate D2E/DX2                !
 ! D36   D(4,3,20,42)         -148.6101         estimate D2E/DX2                !
 ! D37   D(4,3,20,43)           92.904          estimate D2E/DX2                !
 ! D38   D(31,3,20,17)          86.0774         estimate D2E/DX2                !
 ! D39   D(31,3,20,42)         -37.1501         estimate D2E/DX2                !
 ! D40   D(31,3,20,43)        -155.636          estimate D2E/DX2                !
 ! D41   D(3,4,5,6)            -31.7002         estimate D2E/DX2                !
 ! D42   D(3,4,5,10)            93.3983         estimate D2E/DX2                !
 ! D43   D(3,4,5,22)          -149.2514         estimate D2E/DX2                !
 ! D44   D(7,4,5,6)           -154.4044         estimate D2E/DX2                !
 ! D45   D(7,4,5,10)           -29.3059         estimate D2E/DX2                !
 ! D46   D(7,4,5,22)            88.0444         estimate D2E/DX2                !
 ! D47   D(24,4,5,6)            89.9451         estimate D2E/DX2                !
 ! D48   D(24,4,5,10)         -144.9564         estimate D2E/DX2                !
 ! D49   D(24,4,5,22)          -27.6061         estimate D2E/DX2                !
 ! D50   D(3,4,7,8)            -89.2023         estimate D2E/DX2                !
 ! D51   D(3,4,7,17)            19.4688         estimate D2E/DX2                !
 ! D52   D(3,4,7,21)           148.5683         estimate D2E/DX2                !
 ! D53   D(5,4,7,8)             41.2195         estimate D2E/DX2                !
 ! D54   D(5,4,7,17)           149.8906         estimate D2E/DX2                !
 ! D55   D(5,4,7,21)           -81.0098         estimate D2E/DX2                !
 ! D56   D(24,4,7,8)           156.3497         estimate D2E/DX2                !
 ! D57   D(24,4,7,17)          -94.9792         estimate D2E/DX2                !
 ! D58   D(24,4,7,21)           34.1204         estimate D2E/DX2                !
 ! D59   D(3,4,24,23)          135.7362         estimate D2E/DX2                !
 ! D60   D(5,4,24,23)            7.5546         estimate D2E/DX2                !
 ! D61   D(7,4,24,23)         -112.5563         estimate D2E/DX2                !
 ! D62   D(4,5,6,1)             43.0453         estimate D2E/DX2                !
 ! D63   D(4,5,6,34)           -79.2493         estimate D2E/DX2                !
 ! D64   D(4,5,6,35)           166.0187         estimate D2E/DX2                !
 ! D65   D(10,5,6,1)           -86.4806         estimate D2E/DX2                !
 ! D66   D(10,5,6,34)          151.2248         estimate D2E/DX2                !
 ! D67   D(10,5,6,35)           36.4928         estimate D2E/DX2                !
 ! D68   D(22,5,6,1)           155.3187         estimate D2E/DX2                !
 ! D69   D(22,5,6,34)           33.0241         estimate D2E/DX2                !
 ! D70   D(22,5,6,35)          -81.7079         estimate D2E/DX2                !
 ! D71   D(4,5,10,9)             6.7981         estimate D2E/DX2                !
 ! D72   D(4,5,10,16)         -171.3864         estimate D2E/DX2                !
 ! D73   D(6,5,10,9)           133.5497         estimate D2E/DX2                !
 ! D74   D(6,5,10,16)          -44.6347         estimate D2E/DX2                !
 ! D75   D(22,5,10,9)         -106.9354         estimate D2E/DX2                !
 ! D76   D(22,5,10,16)          74.8802         estimate D2E/DX2                !
 ! D77   D(4,5,22,23)           36.866          estimate D2E/DX2                !
 ! D78   D(4,5,22,45)          -80.7888         estimate D2E/DX2                !
 ! D79   D(4,5,22,46)          158.4817         estimate D2E/DX2                !
 ! D80   D(6,5,22,23)          -81.6541         estimate D2E/DX2                !
 ! D81   D(6,5,22,45)          160.6912         estimate D2E/DX2                !
 ! D82   D(6,5,22,46)           39.9616         estimate D2E/DX2                !
 ! D83   D(10,5,22,23)         160.0665         estimate D2E/DX2                !
 ! D84   D(10,5,22,45)          42.4118         estimate D2E/DX2                !
 ! D85   D(10,5,22,46)         -78.3177         estimate D2E/DX2                !
 ! D86   D(4,7,8,9)            -34.1208         estimate D2E/DX2                !
 ! D87   D(4,7,8,19)           146.5192         estimate D2E/DX2                !
 ! D88   D(17,7,8,9)          -148.4576         estimate D2E/DX2                !
 ! D89   D(17,7,8,19)           32.1824         estimate D2E/DX2                !
 ! D90   D(21,7,8,9)            90.5896         estimate D2E/DX2                !
 ! D91   D(21,7,8,19)          -88.7704         estimate D2E/DX2                !
 ! D92   D(4,7,17,18)         -155.4145         estimate D2E/DX2                !
 ! D93   D(4,7,17,20)          -34.6638         estimate D2E/DX2                !
 ! D94   D(4,7,17,30)           84.6429         estimate D2E/DX2                !
 ! D95   D(8,7,17,18)          -37.225          estimate D2E/DX2                !
 ! D96   D(8,7,17,20)           83.5257         estimate D2E/DX2                !
 ! D97   D(8,7,17,30)         -157.1676         estimate D2E/DX2                !
 ! D98   D(21,7,17,18)          77.5604         estimate D2E/DX2                !
 ! D99   D(21,7,17,20)        -161.689          estimate D2E/DX2                !
 ! D100  D(21,7,17,30)         -42.3823         estimate D2E/DX2                !
 ! D101  D(4,7,21,44)          -35.9833         estimate D2E/DX2                !
 ! D102  D(8,7,21,44)         -161.2902         estimate D2E/DX2                !
 ! D103  D(17,7,21,44)          88.9998         estimate D2E/DX2                !
 ! D104  D(7,8,9,10)            10.5244         estimate D2E/DX2                !
 ! D105  D(7,8,9,11)          -175.1532         estimate D2E/DX2                !
 ! D106  D(19,8,9,10)         -170.2073         estimate D2E/DX2                !
 ! D107  D(19,8,9,11)            4.1152         estimate D2E/DX2                !
 ! D108  D(7,8,19,18)          -13.1877         estimate D2E/DX2                !
 ! D109  D(9,8,19,18)          167.4542         estimate D2E/DX2                !
 ! D110  D(8,9,10,5)             3.914          estimate D2E/DX2                !
 ! D111  D(8,9,10,16)         -177.9703         estimate D2E/DX2                !
 ! D112  D(11,9,10,5)         -170.4675         estimate D2E/DX2                !
 ! D113  D(11,9,10,16)           7.6482         estimate D2E/DX2                !
 ! D114  D(8,9,11,12)          -44.6907         estimate D2E/DX2                !
 ! D115  D(8,9,11,13)          132.402          estimate D2E/DX2                !
 ! D116  D(10,9,11,12)         129.5702         estimate D2E/DX2                !
 ! D117  D(10,9,11,13)         -53.3371         estimate D2E/DX2                !
 ! D118  D(9,11,13,14)        -119.218          estimate D2E/DX2                !
 ! D119  D(9,11,13,15)         118.8309         estimate D2E/DX2                !
 ! D120  D(9,11,13,36)          -0.0834         estimate D2E/DX2                !
 ! D121  D(12,11,13,14)         57.8647         estimate D2E/DX2                !
 ! D122  D(12,11,13,15)        -64.0864         estimate D2E/DX2                !
 ! D123  D(12,11,13,36)        176.9993         estimate D2E/DX2                !
 ! D124  D(11,13,14,37)       -175.0456         estimate D2E/DX2                !
 ! D125  D(11,13,14,38)        -59.7365         estimate D2E/DX2                !
 ! D126  D(11,13,14,62)         62.8576         estimate D2E/DX2                !
 ! D127  D(15,13,14,37)        -54.1303         estimate D2E/DX2                !
 ! D128  D(15,13,14,38)         61.1788         estimate D2E/DX2                !
 ! D129  D(15,13,14,62)       -176.2272         estimate D2E/DX2                !
 ! D130  D(36,13,14,37)         65.9789         estimate D2E/DX2                !
 ! D131  D(36,13,14,38)       -178.712          estimate D2E/DX2                !
 ! D132  D(36,13,14,62)        -56.1179         estimate D2E/DX2                !
 ! D133  D(11,13,15,39)        176.7853         estimate D2E/DX2                !
 ! D134  D(11,13,15,40)         57.0027         estimate D2E/DX2                !
 ! D135  D(11,13,15,41)        -63.4175         estimate D2E/DX2                !
 ! D136  D(14,13,15,39)         56.2158         estimate D2E/DX2                !
 ! D137  D(14,13,15,40)        -63.5668         estimate D2E/DX2                !
 ! D138  D(14,13,15,41)        176.0129         estimate D2E/DX2                !
 ! D139  D(36,13,15,39)        -64.1694         estimate D2E/DX2                !
 ! D140  D(36,13,15,40)        176.048          estimate D2E/DX2                !
 ! D141  D(36,13,15,41)         55.6277         estimate D2E/DX2                !
 ! D142  D(13,14,62,63)        176.9958         estimate D2E/DX2                !
 ! D143  D(13,14,62,64)        -63.3107         estimate D2E/DX2                !
 ! D144  D(13,14,62,65)         57.1481         estimate D2E/DX2                !
 ! D145  D(37,14,62,63)         55.8002         estimate D2E/DX2                !
 ! D146  D(37,14,62,64)        175.4937         estimate D2E/DX2                !
 ! D147  D(37,14,62,65)        -64.0475         estimate D2E/DX2                !
 ! D148  D(38,14,62,63)        -61.2125         estimate D2E/DX2                !
 ! D149  D(38,14,62,64)         58.481          estimate D2E/DX2                !
 ! D150  D(38,14,62,65)        178.9397         estimate D2E/DX2                !
 ! D151  D(7,17,18,19)          31.1046         estimate D2E/DX2                !
 ! D152  D(7,17,18,28)         -84.4636         estimate D2E/DX2                !
 ! D153  D(7,17,18,29)         145.7731         estimate D2E/DX2                !
 ! D154  D(20,17,18,19)        -78.7108         estimate D2E/DX2                !
 ! D155  D(20,17,18,28)        165.721          estimate D2E/DX2                !
 ! D156  D(20,17,18,29)         35.9577         estimate D2E/DX2                !
 ! D157  D(30,17,18,19)        151.1048         estimate D2E/DX2                !
 ! D158  D(30,17,18,28)         35.5365         estimate D2E/DX2                !
 ! D159  D(30,17,18,29)        -94.2268         estimate D2E/DX2                !
 ! D160  D(7,17,20,3)           36.2694         estimate D2E/DX2                !
 ! D161  D(7,17,20,42)         159.1343         estimate D2E/DX2                !
 ! D162  D(7,17,20,43)         -81.5285         estimate D2E/DX2                !
 ! D163  D(18,17,20,3)         146.8349         estimate D2E/DX2                !
 ! D164  D(18,17,20,42)        -90.3002         estimate D2E/DX2                !
 ! D165  D(18,17,20,43)         29.037          estimate D2E/DX2                !
 ! D166  D(30,17,20,3)         -83.0268         estimate D2E/DX2                !
 ! D167  D(30,17,20,42)         39.838          estimate D2E/DX2                !
 ! D168  D(30,17,20,43)        159.1753         estimate D2E/DX2                !
 ! D169  D(17,18,19,8)         -11.9073         estimate D2E/DX2                !
 ! D170  D(28,18,19,8)         107.3768         estimate D2E/DX2                !
 ! D171  D(29,18,19,8)        -133.8623         estimate D2E/DX2                !
 ! D172  D(17,18,28,53)        169.3126         estimate D2E/DX2                !
 ! D173  D(17,18,28,54)        -71.8691         estimate D2E/DX2                !
 ! D174  D(17,18,28,55)         48.5174         estimate D2E/DX2                !
 ! D175  D(19,18,28,53)         57.1561         estimate D2E/DX2                !
 ! D176  D(19,18,28,54)        175.9744         estimate D2E/DX2                !
 ! D177  D(19,18,28,55)        -63.6391         estimate D2E/DX2                !
 ! D178  D(29,18,28,53)        -58.3346         estimate D2E/DX2                !
 ! D179  D(29,18,28,54)         60.4837         estimate D2E/DX2                !
 ! D180  D(29,18,28,55)       -179.1299         estimate D2E/DX2                !
 ! D181  D(17,18,29,56)         65.0897         estimate D2E/DX2                !
 ! D182  D(17,18,29,57)       -175.9038         estimate D2E/DX2                !
 ! D183  D(17,18,29,58)        -55.8437         estimate D2E/DX2                !
 ! D184  D(19,18,29,56)        177.6464         estimate D2E/DX2                !
 ! D185  D(19,18,29,57)        -63.3471         estimate D2E/DX2                !
 ! D186  D(19,18,29,58)         56.713          estimate D2E/DX2                !
 ! D187  D(28,18,29,56)        -65.6652         estimate D2E/DX2                !
 ! D188  D(28,18,29,57)         53.3413         estimate D2E/DX2                !
 ! D189  D(28,18,29,58)        173.4014         estimate D2E/DX2                !
 ! D190  D(5,22,23,24)         -33.1383         estimate D2E/DX2                !
 ! D191  D(5,22,23,25)        -154.3579         estimate D2E/DX2                !
 ! D192  D(5,22,23,47)          81.115          estimate D2E/DX2                !
 ! D193  D(45,22,23,24)         84.0745         estimate D2E/DX2                !
 ! D194  D(45,22,23,25)        -37.1451         estimate D2E/DX2                !
 ! D195  D(45,22,23,47)       -161.6723         estimate D2E/DX2                !
 ! D196  D(46,22,23,24)       -153.7594         estimate D2E/DX2                !
 ! D197  D(46,22,23,25)         85.021          estimate D2E/DX2                !
 ! D198  D(46,22,23,47)        -39.5062         estimate D2E/DX2                !
 ! D199  D(22,23,24,4)          16.3029         estimate D2E/DX2                !
 ! D200  D(25,23,24,4)         144.3533         estimate D2E/DX2                !
 ! D201  D(47,23,24,4)        -100.0645         estimate D2E/DX2                !
 ! D202  D(22,23,25,26)        176.5831         estimate D2E/DX2                !
 ! D203  D(22,23,25,27)         -5.3696         estimate D2E/DX2                !
 ! D204  D(24,23,25,26)         57.2822         estimate D2E/DX2                !
 ! D205  D(24,23,25,27)       -124.6705         estimate D2E/DX2                !
 ! D206  D(47,23,25,26)        -57.8016         estimate D2E/DX2                !
 ! D207  D(47,23,25,27)        120.2457         estimate D2E/DX2                !
 ! D208  D(23,25,26,48)        -58.1363         estimate D2E/DX2                !
 ! D209  D(23,25,26,49)         60.0137         estimate D2E/DX2                !
 ! D210  D(23,25,26,50)       -179.4725         estimate D2E/DX2                !
 ! D211  D(27,25,26,48)        123.8031         estimate D2E/DX2                !
 ! D212  D(27,25,26,49)       -118.0468         estimate D2E/DX2                !
 ! D213  D(27,25,26,50)          2.467          estimate D2E/DX2                !
 ! D214  D(23,25,27,51)       -178.2507         estimate D2E/DX2                !
 ! D215  D(23,25,27,52)          1.0049         estimate D2E/DX2                !
 ! D216  D(26,25,27,51)         -0.3497         estimate D2E/DX2                !
 ! D217  D(26,25,27,52)        178.906          estimate D2E/DX2                !
 --------------------------------------------------------------------------------
 Trust Radius=3.00D-01 FncErr=1.00D-07 GrdErr=1.00D-06
 Number of steps in this run=    390 maximum allowed number of steps=    390.
 GradGradGradGradGradGradGradGradGradGradGradGradGradGradGradGradGradGrad

 Stoichiometry    C26H34O5
 Framework group  C1[X(C26H34O5)]
 Deg. of freedom   189
 Full point group                 C1      NOp   1
 Largest Abelian subgroup         C1      NOp   1
 Largest concise Abelian subgroup C1      NOp   1
                         Standard orientation:                         
 ---------------------------------------------------------------------
 Center     Atomic      Atomic             Coordinates (Angstroms)
 Number     Number       Type             X           Y           Z
 ---------------------------------------------------------------------
      1          6           0        1.461871   -0.058444    3.233171
      2          6           0        1.589396    1.179541    2.741862
      3          6           0        1.769735    1.422884    1.257991
      4          6           0        1.497587    0.198673    0.328138
      5          6           0        0.965737   -1.115671    0.959070
      6          6           0        1.493523   -1.310111    2.400744
      7          6           0        0.567245    0.756117   -0.780611
      8          6           0       -0.903769    0.654028   -0.433449
      9          6           0       -1.459603   -0.354060    0.288831
     10          6           0       -0.577506   -1.302478    0.974548
     11          6           0       -2.952845   -0.430016    0.494551
     12          8           0       -3.583627    0.570737    0.791704
     13          6           0       -3.671547   -1.763626    0.259482
     14          6           0       -4.713035   -1.581322   -0.867403
     15          6           0       -4.338724   -2.226737    1.566407
     16          8           0       -1.029871   -2.252598    1.609829
     17          6           0        0.704798    2.292842   -0.797743
     18          6           0       -0.640675    2.748577   -1.413687
     19          8           0       -1.575704    1.685217   -0.948591
     20          6           0        0.912813    2.597645    0.699702
     21          8           0        0.763264    0.104524   -2.021958
     22          6           0        1.574019   -2.187311    0.014776
     23          6           0        2.945496   -1.605869   -0.316911
     24          8           0        2.740556   -0.162908   -0.326952
     25          6           0        3.619567   -2.002074   -1.614853
     26          6           0        4.933815   -1.307965   -1.881428
     27          6           0        3.116592   -2.922530   -2.443327
     28          6           0       -0.634441    2.729960   -2.943506
     29          6           0       -1.208796    4.063534   -0.887239
     30          1           0        1.557667    2.618092   -1.401526
     31          1           0        2.825722    1.673551    1.081634
     32          6           0        1.632355    2.391683    3.639477
     33          1           0        1.369672   -0.191441    4.310337
     34          1           0        2.525197   -1.691606    2.368478
     35          1           0        0.893392   -2.099460    2.862442
     36          1           0       -2.936654   -2.515206   -0.046548
     37          1           0       -5.277455   -2.518908   -0.959763
     38          1           0       -5.426435   -0.809724   -0.553724
     39          1           0       -4.904131   -3.150645    1.397862
     40          1           0       -5.028997   -1.459451    1.932903
     41          1           0       -3.585548   -2.420022    2.335197
     42          1           0        1.385142    3.569118    0.870644
     43          1           0       -0.053776    2.614826    1.214917
     44          1           0        1.724581   -0.072131   -2.051326
     45          1           0        0.965801   -2.274295   -0.889809
     46          1           0        1.627666   -3.167071    0.496759
     47          1           0        3.649861   -1.821113    0.501983
     48          1           0        4.806474   -0.219585   -1.898615
     49          1           0        5.658700   -1.525350   -1.084854
     50          1           0        5.368565   -1.625363   -2.833750
     51          1           0        3.641197   -3.202980   -3.353242
     52          1           0        2.181663   -3.439166   -2.251679
     53          1           0       -1.652259    2.873670   -3.320394
     54          1           0       -0.011204    3.547601   -3.323782
     55          1           0       -0.242583    1.783954   -3.321171
     56          1           0       -0.543991    4.891293   -1.158506
     57          1           0       -2.189892    4.251944   -1.333965
     58          1           0       -1.329311    4.052071    0.198138
     59          1           0        1.564085    2.104157    4.693105
     60          1           0        2.567710    2.953026    3.501983
     61          1           0        0.813238    3.091283    3.429600
     62          6           0       -4.113317   -1.208249   -2.228202
     63          1           0       -4.893882   -1.145416   -2.995204
     64          1           0       -3.608787   -0.235665   -2.192328
     65          1           0       -3.380121   -1.953908   -2.560372
 ---------------------------------------------------------------------
 Rotational constants (GHZ):      0.1883217      0.1299299      0.1221306
 Standard basis: 6-311+G(d) (5D, 7F)
 There are   784 symmetry adapted basis functions of A   symmetry.
 Integral buffers will be    131072 words long.
 Raffenetti 2 integral format.
 Two-electron integral symmetry is turned on.
   784 basis functions,  1286 primitive gaussians,   815 cartesian basis functions
   115 alpha electrons      115 beta electrons
       nuclear repulsion energy      3517.8370937383 Hartrees.
 NAtoms=   65 NActive=   65 NUniq=   65 SFac= 1.00D+00 NAtFMM=   50 NAOKFM=T Big=T
 One-electron integrals computed using PRISM.
 NBasis=   784 RedAO= T  NBF=   784
 NBsUse=   777 1.00D-06 NBFU=   777
 Harris functional with IExCor=  402 diagonalized for initial guess.
 ExpMin= 4.38D-02 ExpMax= 8.59D+03 ExpMxC= 1.30D+03 IAcc=2 IRadAn=         0 AccDes= 0.00D+00
 HarFok:  IExCor=  402 AccDes= 0.00D+00 IRadAn=         0 IDoV= 1
 ScaDFX=  1.000000  1.000000  1.000000  1.000000
 FoFCou: FMM=F IPFlag=           0 FMFlag=      100000 FMFlg1=        2001
         NFxFlg=           0 DoJE=T BraDBF=F KetDBF=T FulRan=T
         Omega=  0.000000  0.000000  1.000000  0.000000  0.000000 ICntrl=     500 IOpCl=  0
         NMat0=    1 NMatS0=    1 NMatT0=    0 NMatD0=    1 NMtDS0=    0 NMtDT0=    0
         I1Cent=           4 NGrid=           0.
 Petite list used in FoFCou.
 Initial guess orbital symmetries:
       Occupied  (A) (A) (A) (A) (A) (A) (A) (A) (A) (A) (A) (A)
                 (A) (A) (A) (A) (A) (A) (A) (A) (A) (A) (A) (A)
                 (A) (A) (A) (A) (A) (A) (A) (A) (A) (A) (A) (A)
                 (A) (A) (A) (A) (A) (A) (A) (A) (A) (A) (A) (A)
                 (A) (A) (A) (A) (A) (A) (A) (A) (A) (A) (A) (A)
                 (A) (A) (A) (A) (A) (A) (A) (A) (A) (A) (A) (A)
                 (A) (A) (A) (A) (A) (A) (A) (A) (A) (A) (A) (A)
                 (A) (A) (A) (A) (A) (A) (A) (A) (A) (A) (A) (A)
                 (A) (A) (A) (A) (A) (A) (A) (A) (A) (A) (A) (A)
                 (A) (A) (A) (A) (A) (A) (A)
       Virtual   (A) (A) (A) (A) (A) (A) (A) (A) (A) (A) (A) (A)
                 (A) (A) (A) (A) (A) (A) (A) (A) (A) (A) (A) (A)
                 (A) (A) (A) (A) (A) (A) (A) (A) (A) (A) (A) (A)
                 (A) (A) (A) (A) (A) (A) (A) (A) (A) (A) (A) (A)
                 (A) (A) (A) (A) (A) (A) (A) (A) (A) (A) (A) (A)
                 (A) (A) (A) (A) (A) (A) (A) (A) (A) (A) (A) (A)
                 (A) (A) (A) (A) (A) (A) (A) (A) (A) (A) (A) (A)
                 (A) (A) (A) (A) (A) (A) (A) (A) (A) (A) (A) (A)
                 (A) (A) (A) (A) (A) (A) (A) (A) (A) (A) (A) (A)
                 (A) (A) (A) (A) (A) (A) (A) (A) (A) (A) (A) (A)
                 (A) (A) (A) (A) (A) (A) (A) (A) (A) (A) (A) (A)
                 (A) (A) (A) (A) (A) (A) (A) (A) (A) (A) (A) (A)
                 (A) (A) (A) (A) (A) (A) (A) (A) (A) (A) (A) (A)
                 (A) (A) (A) (A) (A) (A) (A) (A) (A) (A) (A) (A)
                 (A) (A) (A) (A) (A) (A) (A) (A) (A) (A) (A) (A)
                 (A) (A) (A) (A) (A) (A) (A) (A) (A) (A) (A) (A)
                 (A) (A) (A) (A) (A) (A) (A) (A) (A) (A) (A) (A)
                 (A) (A) (A) (A) (A) (A) (A) (A) (A) (A) (A) (A)
                 (A) (A) (A) (A) (A) (A) (A) (A) (A) (A) (A) (A)
                 (A) (A) (A) (A) (A) (A) (A) (A) (A) (A) (A) (A)
                 (A) (A) (A) (A) (A) (A) (A) (A) (A) (A) (A) (A)
                 (A) (A) (A) (A) (A) (A) (A) (A) (A) (A) (A) (A)
                 (A) (A) (A) (A) (A) (A) (A) (A) (A) (A) (A) (A)
                 (A) (A) (A) (A) (A) (A) (A) (A) (A) (A) (A) (A)
                 (A) (A) (A) (A) (A) (A) (A) (A) (A) (A) (A) (A)
                 (A) (A) (A) (A) (A) (A) (A) (A) (A) (A) (A) (A)
                 (A) (A) (A) (A) (A) (A) (A) (A) (A) (A) (A) (A)
                 (A) (A) (A) (A) (A) (A) (A) (A) (A) (A) (A) (A)
                 (A) (A) (A) (A) (A) (A) (A) (A) (A) (A) (A) (A)
                 (A) (A) (A) (A) (A) (A) (A) (A) (A) (A) (A) (A)
                 (A) (A) (A) (A) (A) (A) (A) (A) (A) (A) (A) (A)
                 (A) (A) (A) (A) (A) (A) (A) (A) (A) (A) (A) (A)
                 (A) (A) (A) (A) (A) (A) (A) (A) (A) (A) (A) (A)
                 (A) (A) (A) (A) (A) (A) (A) (A) (A) (A) (A) (A)
                 (A) (A) (A) (A) (A) (A) (A) (A) (A) (A) (A) (A)
                 (A) (A) (A) (A) (A) (A) (A) (A) (A) (A) (A) (A)
                 (A) (A) (A) (A) (A) (A) (A) (A) (A) (A) (A) (A)
                 (A) (A) (A) (A) (A) (A) (A) (A) (A) (A) (A) (A)
                 (A) (A) (A) (A) (A) (A) (A) (A) (A) (A) (A) (A)
                 (A) (A) (A) (A) (A) (A) (A) (A) (A) (A) (A) (A)
                 (A) (A) (A) (A) (A) (A) (A) (A) (A) (A) (A) (A)
                 (A) (A) (A) (A) (A) (A) (A) (A) (A) (A) (A) (A)
                 (A) (A) (A) (A) (A) (A) (A) (A) (A) (A) (A) (A)
                 (A) (A) (A) (A) (A) (A) (A) (A) (A) (A) (A) (A)
                 (A) (A) (A) (A) (A) (A) (A) (A) (A) (A) (A) (A)
                 (A) (A) (A) (A) (A) (A) (A) (A) (A) (A) (A) (A)
                 (A) (A) (A) (A) (A) (A) (A) (A) (A) (A) (A) (A)
                 (A) (A) (A) (A) (A) (A) (A) (A) (A) (A) (A) (A)
                 (A) (A) (A) (A) (A) (A) (A) (A) (A) (A) (A) (A)
                 (A) (A) (A) (A) (A) (A) (A) (A) (A) (A) (A) (A)
                 (A) (A) (A) (A) (A) (A) (A) (A) (A) (A) (A) (A)
                 (A) (A) (A) (A) (A) (A) (A) (A) (A) (A) (A) (A)
                 (A) (A) (A) (A) (A) (A) (A) (A) (A) (A) (A) (A)
                 (A) (A) (A) (A) (A) (A) (A) (A) (A) (A) (A) (A)
                 (A) (A) (A) (A) (A) (A) (A) (A) (A) (A) (A) (A)
                 (A) (A)
 The electronic state of the initial guess is 1-A.
 Requested convergence on RMS density matrix=1.00D-08 within 128 cycles.
 Requested convergence on MAX density matrix=1.00D-06.
 Requested convergence on             energy=1.00D-06.
 No special actions if energy rises.
 SCF Done:  E(RB3LYP) =  -1387.64954158     A.U. after   16 cycles
             Convg  =    0.8836D-08             -V/T =  2.0043

 **********************************************************************

            Population analysis using the SCF density.

 **********************************************************************

 Orbital symmetries:
       Occupied  (A) (A) (A) (A) (A) (A) (A) (A) (A) (A) (A) (A)
                 (A) (A) (A) (A) (A) (A) (A) (A) (A) (A) (A) (A)
                 (A) (A) (A) (A) (A) (A) (A) (A) (A) (A) (A) (A)
                 (A) (A) (A) (A) (A) (A) (A) (A) (A) (A) (A) (A)
                 (A) (A) (A) (A) (A) (A) (A) (A) (A) (A) (A) (A)
                 (A) (A) (A) (A) (A) (A) (A) (A) (A) (A) (A) (A)
                 (A) (A) (A) (A) (A) (A) (A) (A) (A) (A) (A) (A)
                 (A) (A) (A) (A) (A) (A) (A) (A) (A) (A) (A) (A)
                 (A) (A) (A) (A) (A) (A) (A) (A) (A) (A) (A) (A)
                 (A) (A) (A) (A) (A) (A) (A)
       Virtual   (A) (A) (A) (A) (A) (A) (A) (A) (A) (A) (A) (A)
                 (A) (A) (A) (A) (A) (A) (A) (A) (A) (A) (A) (A)
                 (A) (A) (A) (A) (A) (A) (A) (A) (A) (A) (A) (A)
                 (A) (A) (A) (A) (A) (A) (A) (A) (A) (A) (A) (A)
                 (A) (A) (A) (A) (A) (A) (A) (A) (A) (A) (A) (A)
                 (A) (A) (A) (A) (A) (A) (A) (A) (A) (A) (A) (A)
                 (A) (A) (A) (A) (A) (A) (A) (A) (A) (A) (A) (A)
                 (A) (A) (A) (A) (A) (A) (A) (A) (A) (A) (A) (A)
                 (A) (A) (A) (A) (A) (A) (A) (A) (A) (A) (A) (A)
                 (A) (A) (A) (A) (A) (A) (A) (A) (A) (A) (A) (A)
                 (A) (A) (A) (A) (A) (A) (A) (A) (A) (A) (A) (A)
                 (A) (A) (A) (A) (A) (A) (A) (A) (A) (A) (A) (A)
                 (A) (A) (A) (A) (A) (A) (A) (A) (A) (A) (A) (A)
                 (A) (A) (A) (A) (A) (A) (A) (A) (A) (A) (A) (A)
                 (A) (A) (A) (A) (A) (A) (A) (A) (A) (A) (A) (A)
                 (A) (A) (A) (A) (A) (A) (A) (A) (A) (A) (A) (A)
                 (A) (A) (A) (A) (A) (A) (A) (A) (A) (A) (A) (A)
                 (A) (A) (A) (A) (A) (A) (A) (A) (A) (A) (A) (A)
                 (A) (A) (A) (A) (A) (A) (A) (A) (A) (A) (A) (A)
                 (A) (A) (A) (A) (A) (A) (A) (A) (A) (A) (A) (A)
                 (A) (A) (A) (A) (A) (A) (A) (A) (A) (A) (A) (A)
                 (A) (A) (A) (A) (A) (A) (A) (A) (A) (A) (A) (A)
                 (A) (A) (A) (A) (A) (A) (A) (A) (A) (A) (A) (A)
                 (A) (A) (A) (A) (A) (A) (A) (A) (A) (A) (A) (A)
                 (A) (A) (A) (A) (A) (A) (A) (A) (A) (A) (A) (A)
                 (A) (A) (A) (A) (A) (A) (A) (A) (A) (A) (A) (A)
                 (A) (A) (A) (A) (A) (A) (A) (A) (A) (A) (A) (A)
                 (A) (A) (A) (A) (A) (A) (A) (A) (A) (A) (A) (A)
                 (A) (A) (A) (A) (A) (A) (A) (A) (A) (A) (A) (A)
                 (A) (A) (A) (A) (A) (A) (A) (A) (A) (A) (A) (A)
                 (A) (A) (A) (A) (A) (A) (A) (A) (A) (A) (A) (A)
                 (A) (A) (A) (A) (A) (A) (A) (A) (A) (A) (A) (A)
                 (A) (A) (A) (A) (A) (A) (A) (A) (A) (A) (A) (A)
                 (A) (A) (A) (A) (A) (A) (A) (A) (A) (A) (A) (A)
                 (A) (A) (A) (A) (A) (A) (A) (A) (A) (A) (A) (A)
                 (A) (A) (A) (A) (A) (A) (A) (A) (A) (A) (A) (A)
                 (A) (A) (A) (A) (A) (A) (A) (A) (A) (A) (A) (A)
                 (A) (A) (A) (A) (A) (A) (A) (A) (A) (A) (A) (A)
                 (A) (A) (A) (A) (A) (A) (A) (A) (A) (A) (A) (A)
                 (A) (A) (A) (A) (A) (A) (A) (A) (A) (A) (A) (A)
                 (A) (A) (A) (A) (A) (A) (A) (A) (A) (A) (A) (A)
                 (A) (A) (A) (A) (A) (A) (A) (A) (A) (A) (A) (A)
                 (A) (A) (A) (A) (A) (A) (A) (A) (A) (A) (A) (A)
                 (A) (A) (A) (A) (A) (A) (A) (A) (A) (A) (A) (A)
                 (A) (A) (A) (A) (A) (A) (A) (A) (A) (A) (A) (A)
                 (A) (A) (A) (A) (A) (A) (A) (A) (A) (A) (A) (A)
                 (A) (A) (A) (A) (A) (A) (A) (A) (A) (A) (A) (A)
                 (A) (A) (A) (A) (A) (A) (A) (A) (A) (A) (A) (A)
                 (A) (A) (A) (A) (A) (A) (A) (A) (A) (A) (A) (A)
                 (A) (A) (A) (A) (A) (A) (A) (A) (A) (A) (A) (A)
                 (A) (A) (A) (A) (A) (A) (A) (A) (A) (A) (A) (A)
                 (A) (A) (A) (A) (A) (A) (A) (A) (A) (A) (A) (A)
                 (A) (A) (A) (A) (A) (A) (A) (A) (A) (A) (A) (A)
                 (A) (A) (A) (A) (A) (A) (A) (A) (A) (A) (A) (A)
                 (A) (A) (A) (A) (A) (A) (A) (A) (A) (A) (A) (A)
                 (A) (A)
 The electronic state is 1-A.
 Alpha  occ. eigenvalues --  -19.17748 -19.14852 -19.14081 -19.10665 -19.10494
 Alpha  occ. eigenvalues --  -10.26899 -10.26603 -10.25868 -10.25603 -10.25416
 Alpha  occ. eigenvalues --  -10.25367 -10.24457 -10.20868 -10.19978 -10.19902
 Alpha  occ. eigenvalues --  -10.19643 -10.18892 -10.18721 -10.18637 -10.18545
 Alpha  occ. eigenvalues --  -10.17827 -10.17826 -10.17696 -10.17582 -10.17304
 Alpha  occ. eigenvalues --  -10.17143 -10.16948 -10.16726 -10.15801 -10.14893
 Alpha  occ. eigenvalues --  -10.14489  -1.10397  -1.07153  -1.04239  -1.03771
 Alpha  occ. eigenvalues --   -1.03486  -0.87723  -0.84580  -0.83344  -0.82390
 Alpha  occ. eigenvalues --   -0.81168  -0.79844  -0.77637  -0.75195  -0.74113
 Alpha  occ. eigenvalues --   -0.72580  -0.72020  -0.70615  -0.70303  -0.68738
 Alpha  occ. eigenvalues --   -0.66099  -0.64637  -0.64117  -0.62304  -0.61570
 Alpha  occ. eigenvalues --   -0.60471  -0.59684  -0.57988  -0.55667  -0.54531
 Alpha  occ. eigenvalues --   -0.53716  -0.53165  -0.51745  -0.51296  -0.50253
 Alpha  occ. eigenvalues --   -0.49327  -0.48835  -0.47644  -0.47071  -0.46781
 Alpha  occ. eigenvalues --   -0.46196  -0.45464  -0.44771  -0.44392  -0.44200
 Alpha  occ. eigenvalues --   -0.43408  -0.43044  -0.42688  -0.42378  -0.42167
 Alpha  occ. eigenvalues --   -0.41872  -0.41340  -0.41096  -0.40956  -0.40637
 Alpha  occ. eigenvalues --   -0.40033  -0.39968  -0.39291  -0.39020  -0.38893
 Alpha  occ. eigenvalues --   -0.38469  -0.38444  -0.38225  -0.37880  -0.37528
 Alpha  occ. eigenvalues --   -0.37364  -0.36038  -0.35864  -0.35458  -0.35195
 Alpha  occ. eigenvalues --   -0.34667  -0.34490  -0.33919  -0.33476  -0.33126
 Alpha  occ. eigenvalues --   -0.32377  -0.32160  -0.31397  -0.29438  -0.27909
 Alpha  occ. eigenvalues --   -0.27467  -0.26075  -0.25279  -0.24566  -0.24028
 Alpha virt. eigenvalues --   -0.06253  -0.02880  -0.02019  -0.01185  -0.00117
 Alpha virt. eigenvalues --    0.00198   0.00465   0.01056   0.01542   0.01916
 Alpha virt. eigenvalues --    0.02092   0.02357   0.02688   0.03394   0.03530
 Alpha virt. eigenvalues --    0.03928   0.03955   0.04437   0.04626   0.04686
 Alpha virt. eigenvalues --    0.05305   0.05463   0.05539   0.05920   0.06446
 Alpha virt. eigenvalues --    0.06551   0.06854   0.07174   0.07364   0.07687
 Alpha virt. eigenvalues --    0.07729   0.07947   0.08030   0.08772   0.08906
 Alpha virt. eigenvalues --    0.09037   0.09449   0.09546   0.09710   0.09784
 Alpha virt. eigenvalues --    0.10241   0.10546   0.10659   0.10693   0.11147
 Alpha virt. eigenvalues --    0.11210   0.11638   0.11886   0.12067   0.12340
 Alpha virt. eigenvalues --    0.12510   0.12752   0.13081   0.13300   0.13468
 Alpha virt. eigenvalues --    0.13708   0.14051   0.14152   0.14369   0.14664
 Alpha virt. eigenvalues --    0.14954   0.15421   0.15464   0.15687   0.16044
 Alpha virt. eigenvalues --    0.16236   0.16530   0.16789   0.17092   0.17124
 Alpha virt. eigenvalues --    0.17405   0.17733   0.17938   0.18052   0.18188
 Alpha virt. eigenvalues --    0.18224   0.18534   0.18604   0.18794   0.19030
 Alpha virt. eigenvalues --    0.19293   0.19605   0.19722   0.19816   0.20007
 Alpha virt. eigenvalues --    0.20199   0.20574   0.20694   0.20895   0.21248
 Alpha virt. eigenvalues --    0.21289   0.21523   0.21706   0.21985   0.22059
 Alpha virt. eigenvalues --    0.22251   0.22411   0.22558   0.22815   0.23004
 Alpha virt. eigenvalues --    0.23114   0.23435   0.23539   0.23551   0.23669
 Alpha virt. eigenvalues --    0.24214   0.24416   0.24578   0.24849   0.24966
 Alpha virt. eigenvalues --    0.25194   0.25560   0.25784   0.25843   0.26099
 Alpha virt. eigenvalues --    0.26346   0.26515   0.26831   0.26855   0.27263
 Alpha virt. eigenvalues --    0.27446   0.27671   0.27689   0.27860   0.28248
 Alpha virt. eigenvalues --    0.28563   0.28739   0.29078   0.29305   0.29392
 Alpha virt. eigenvalues --    0.29795   0.29949   0.30297   0.30442   0.30730
 Alpha virt. eigenvalues --    0.30807   0.31269   0.31633   0.31725   0.32056
 Alpha virt. eigenvalues --    0.32334   0.32563   0.32730   0.33373   0.33804
 Alpha virt. eigenvalues --    0.34031   0.34303   0.34468   0.34813   0.35145
 Alpha virt. eigenvalues --    0.35496   0.35648   0.35785   0.36592   0.36916
 Alpha virt. eigenvalues --    0.37171   0.37360   0.37955   0.38174   0.38497
 Alpha virt. eigenvalues --    0.39045   0.39331   0.39862   0.40126   0.40395
 Alpha virt. eigenvalues --    0.40710   0.40984   0.41471   0.42113   0.42293
 Alpha virt. eigenvalues --    0.42612   0.42823   0.43099   0.43584   0.43831
 Alpha virt. eigenvalues --    0.44302   0.44633   0.44837   0.45308   0.45690
 Alpha virt. eigenvalues --    0.46139   0.46431   0.46942   0.47149   0.47522
 Alpha virt. eigenvalues --    0.47649   0.48104   0.49075   0.49281   0.49433
 Alpha virt. eigenvalues --    0.49707   0.49922   0.50307   0.51059   0.51674
 Alpha virt. eigenvalues --    0.52016   0.52394   0.52933   0.53799   0.53853
 Alpha virt. eigenvalues --    0.54169   0.54782   0.55192   0.55846   0.56175
 Alpha virt. eigenvalues --    0.56423   0.56847   0.57188   0.57532   0.58159
 Alpha virt. eigenvalues --    0.58628   0.59039   0.59139   0.59610   0.59840
 Alpha virt. eigenvalues --    0.60207   0.60390   0.60869   0.60993   0.61490
 Alpha virt. eigenvalues --    0.62431   0.62647   0.63171   0.63577   0.64099
 Alpha virt. eigenvalues --    0.64449   0.64837   0.65443   0.65617   0.66004
 Alpha virt. eigenvalues --    0.66442   0.66738   0.67122   0.67344   0.67579
 Alpha virt. eigenvalues --    0.67806   0.68267   0.68415   0.68898   0.69287
 Alpha virt. eigenvalues --    0.69666   0.69978   0.70288   0.70661   0.70859
 Alpha virt. eigenvalues --    0.70981   0.71183   0.71398   0.71792   0.72188
 Alpha virt. eigenvalues --    0.72461   0.72513   0.72835   0.73017   0.73311
 Alpha virt. eigenvalues --    0.73729   0.74200   0.74563   0.74860   0.75206
 Alpha virt. eigenvalues --    0.75677   0.75758   0.75943   0.76716   0.77015
 Alpha virt. eigenvalues --    0.77494   0.77781   0.78033   0.78649   0.78953
 Alpha virt. eigenvalues --    0.79118   0.79385   0.79929   0.80643   0.80924
 Alpha virt. eigenvalues --    0.81319   0.81964   0.82449   0.82689   0.83338
 Alpha virt. eigenvalues --    0.83846   0.84001   0.84196   0.85203   0.85645
 Alpha virt. eigenvalues --    0.85958   0.86780   0.87706   0.88166   0.88386
 Alpha virt. eigenvalues --    0.89327   0.90580   0.90761   0.91627   0.92797
 Alpha virt. eigenvalues --    0.93194   0.93731   0.94759   0.95940   0.96065
 Alpha virt. eigenvalues --    0.97343   0.97696   0.98400   1.00716   1.01062
 Alpha virt. eigenvalues --    1.01345   1.03441   1.03645   1.04561   1.05996
 Alpha virt. eigenvalues --    1.07057   1.07330   1.08236   1.09940   1.11067
 Alpha virt. eigenvalues --    1.11597   1.12199   1.13114   1.13888   1.14660
 Alpha virt. eigenvalues --    1.15330   1.16279   1.17341   1.18255   1.19342
 Alpha virt. eigenvalues --    1.20856   1.21618   1.22289   1.23033   1.23627
 Alpha virt. eigenvalues --    1.24784   1.25275   1.26291   1.26775   1.28261
 Alpha virt. eigenvalues --    1.28949   1.29459   1.30391   1.32184   1.32190
 Alpha virt. eigenvalues --    1.32876   1.33438   1.34221   1.34593   1.35482
 Alpha virt. eigenvalues --    1.35931   1.37159   1.37613   1.38115   1.39984
 Alpha virt. eigenvalues --    1.40804   1.41558   1.42253   1.42932   1.43809
 Alpha virt. eigenvalues --    1.44936   1.45507   1.46283   1.47395   1.48080
 Alpha virt. eigenvalues --    1.48277   1.50040   1.50648   1.51322   1.52089
 Alpha virt. eigenvalues --    1.52976   1.53759   1.53854   1.54380   1.55187
 Alpha virt. eigenvalues --    1.56212   1.56506   1.57541   1.57645   1.58172
 Alpha virt. eigenvalues --    1.58817   1.59794   1.60011   1.60184   1.60809
 Alpha virt. eigenvalues --    1.61467   1.61511   1.62143   1.63139   1.63384
 Alpha virt. eigenvalues --    1.63733   1.64023   1.64911   1.65179   1.65734
 Alpha virt. eigenvalues --    1.65856   1.66280   1.66410   1.66671   1.67529
 Alpha virt. eigenvalues --    1.67756   1.68215   1.69073   1.69571   1.70418
 Alpha virt. eigenvalues --    1.70689   1.71141   1.71814   1.71942   1.72836
 Alpha virt. eigenvalues --    1.73454   1.74044   1.74988   1.75396   1.76130
 Alpha virt. eigenvalues --    1.76682   1.77178   1.78315   1.79136   1.79535
 Alpha virt. eigenvalues --    1.80636   1.81518   1.83030   1.83375   1.84064
 Alpha virt. eigenvalues --    1.84502   1.85442   1.85542   1.86170   1.87014
 Alpha virt. eigenvalues --    1.88241   1.89151   1.89727   1.90568   1.91400
 Alpha virt. eigenvalues --    1.92481   1.93437   1.93960   1.95271   1.96344
 Alpha virt. eigenvalues --    1.97492   1.98432   1.99926   2.00913   2.02298
 Alpha virt. eigenvalues --    2.03161   2.03673   2.04193   2.04805   2.06815
 Alpha virt. eigenvalues --    2.06990   2.07397   2.08023   2.08621   2.09144
 Alpha virt. eigenvalues --    2.10606   2.12216   2.14097   2.14827   2.16351
 Alpha virt. eigenvalues --    2.17211   2.18416   2.19179   2.21986   2.22323
 Alpha virt. eigenvalues --    2.22778   2.23282   2.24913   2.25721   2.26726
 Alpha virt. eigenvalues --    2.27592   2.29344   2.31176   2.32874   2.33251
 Alpha virt. eigenvalues --    2.35123   2.37478   2.38714   2.39759   2.42493
 Alpha virt. eigenvalues --    2.44132   2.47420   2.48614   2.49642   2.51424
 Alpha virt. eigenvalues --    2.52028   2.52691   2.52771   2.54480   2.54737
 Alpha virt. eigenvalues --    2.55617   2.56441   2.56572   2.57243   2.57980
 Alpha virt. eigenvalues --    2.59043   2.59734   2.60388   2.60816   2.62901
 Alpha virt. eigenvalues --    2.63371   2.63763   2.65117   2.66161   2.66550
 Alpha virt. eigenvalues --    2.66898   2.68393   2.69073   2.69905   2.70194
 Alpha virt. eigenvalues --    2.70625   2.71319   2.72036   2.73032   2.74446
 Alpha virt. eigenvalues --    2.75689   2.77512   2.81685   2.83486   2.84138
 Alpha virt. eigenvalues --    2.85260   2.87367   2.88760   2.89345   2.89599
 Alpha virt. eigenvalues --    2.91304   2.92826   2.93256   2.94589   2.95082
 Alpha virt. eigenvalues --    2.96643   2.97232   2.98749   2.98884   2.99927
 Alpha virt. eigenvalues --    3.00326   3.01262   3.02649   3.03544   3.04091
 Alpha virt. eigenvalues --    3.04363   3.05018   3.06460   3.08146   3.09633
 Alpha virt. eigenvalues --    3.09842   3.10949   3.11642   3.12600   3.13748
 Alpha virt. eigenvalues --    3.14247   3.15313   3.16040   3.16362   3.17009
 Alpha virt. eigenvalues --    3.18194   3.19730   3.20538   3.21183   3.21931
 Alpha virt. eigenvalues --    3.23399   3.24022   3.24651   3.25527   3.26148
 Alpha virt. eigenvalues --    3.26478   3.27427   3.27911   3.28497   3.29898
 Alpha virt. eigenvalues --    3.30407   3.30986   3.32149   3.33799   3.34059
 Alpha virt. eigenvalues --    3.34540   3.35868   3.37306   3.38384   3.38616
 Alpha virt. eigenvalues --    3.39127   3.40617   3.41669   3.42670   3.44719
 Alpha virt. eigenvalues --    3.46538   3.47735   3.51000   3.52756   3.53419
 Alpha virt. eigenvalues --    3.54865   3.59412   3.61307   3.63810   3.73963
 Alpha virt. eigenvalues --    3.76703   3.77823   3.79363   3.87762   3.89034
 Alpha virt. eigenvalues --    3.90945   3.96737   3.98014   4.01183   4.02821
 Alpha virt. eigenvalues --    4.05735   4.06259   4.09932   4.10650   4.12443
 Alpha virt. eigenvalues --    4.15268   4.17777   4.19963   4.22111   4.23108
 Alpha virt. eigenvalues --    4.23549   4.28135   4.29656   4.33104   4.44947
 Alpha virt. eigenvalues --    4.60760   5.13197   5.17961   5.18036   5.21902
 Alpha virt. eigenvalues --    5.23963   5.29694   5.31639   5.33651   5.42026
 Alpha virt. eigenvalues --    5.42688   5.56967   5.66377   5.73356   5.79099
 Alpha virt. eigenvalues --    5.84081  23.45534  23.47741  23.51578  23.53007
 Alpha virt. eigenvalues --   23.63717  23.65023  23.65866  23.67268  23.69208
 Alpha virt. eigenvalues --   23.70512  23.72944  23.73809  23.76248  23.78641
 Alpha virt. eigenvalues --   23.78823  23.79494  23.82526  23.84575  23.86400
 Alpha virt. eigenvalues --   23.86798  23.88987  23.89522  23.96204  24.15500
 Alpha virt. eigenvalues --   24.18876  24.22029  49.99103  50.00577  50.02795
 Alpha virt. eigenvalues --   50.02965  50.06989
          Condensed to atoms (all electrons):
 Mulliken atomic charges:
              1
     1  C   -0.250499
     2  C    0.643273
     3  C   -0.132569
     4  C   -0.705808
     5  C    1.116092
     6  C   -0.726394
     7  C   -1.094946
     8  C    0.283431
     9  C    0.627414
    10  C   -0.717165
    11  C    0.090266
    12  O   -0.184959
    13  C    0.309104
    14  C   -0.388846
    15  C   -1.103401
    16  O   -0.194694
    17  C   -0.172501
    18  C    0.592984
    19  O    0.156292
    20  C   -1.236301
    21  O   -0.003310
    22  C   -0.541918
    23  C   -0.549546
    24  O    0.032788
    25  C    0.942528
    26  C   -1.007114
    27  C   -0.994676
    28  C   -0.804027
    29  C   -0.688354
    30  H    0.236304
    31  H    0.271654
    32  C   -1.060025
    33  H    0.202874
    34  H    0.238150
    35  H    0.284652
    36  H    0.228408
    37  H    0.220759
    38  H    0.264364
    39  H    0.231513
    40  H    0.266894
    41  H    0.278011
    42  H    0.268317
    43  H    0.281956
    44  H    0.286083
    45  H    0.249304
    46  H    0.276096
    47  H    0.232026
    48  H    0.267672
    49  H    0.263534
    50  H    0.253405
    51  H    0.230221
    52  H    0.237014
    53  H    0.264584
    54  H    0.251031
    55  H    0.312725
    56  H    0.258903
    57  H    0.271201
    58  H    0.264829
    59  H    0.256816
    60  H    0.254203
    61  H    0.260404
    62  C   -0.958573
    63  H    0.246852
    64  H    0.269775
    65  H    0.240922
 Sum of Mulliken atomic charges =   0.00000
 Mulliken charges with hydrogens summed into heavy atoms:
              1
     1  C   -0.047625
     2  C    0.643273
     3  C    0.139085
     4  C   -0.705808
     5  C    1.116092
     6  C   -0.203593
     7  C   -1.094946
     8  C    0.283431
     9  C    0.627414
    10  C   -0.717165
    11  C    0.090266
    12  O   -0.184959
    13  C    0.537511
    14  C    0.096278
    15  C   -0.326984
    16  O   -0.194694
    17  C    0.063804
    18  C    0.592984
    19  O    0.156292
    20  C   -0.686028
    21  O    0.282773
    22  C   -0.016519
    23  C   -0.317520
    24  O    0.032788
    25  C    0.942528
    26  C   -0.222503
    27  C   -0.527441
    28  C    0.024312
    29  C    0.106580
    32  C   -0.288602
    62  C   -0.201024
 Sum of Mulliken charges with hydrogens summed into heavy atoms =   0.00000
 Electronic spatial extent (au):  <R**2>=          11308.8916
 Charge=              0.0000 electrons
 Dipole moment (field-independent basis, Debye):
    X=              5.3610    Y=              1.9868    Z=             -1.6423  Tot=              5.9486
 Quadrupole moment (field-independent basis, Debye-Ang):
   XX=           -193.7082   YY=           -178.8551   ZZ=           -187.7958
   XY=              1.3015   XZ=              4.6069   YZ=              1.6325
 Traceless Quadrupole moment (field-independent basis, Debye-Ang):
   XX=             -6.9219   YY=              7.9313   ZZ=             -1.0094
   XY=              1.3015   XZ=              4.6069   YZ=              1.6325
 Octapole moment (field-independent basis, Debye-Ang**2):
  XXX=             52.1226  YYY=             53.2035  ZZZ=              3.3463  XYY=             11.5418
  XXY=            -29.4098  XXZ=            -34.9226  XZZ=             19.8872  YZZ=             11.2088
  YYZ=            -28.5291  XYZ=              5.0585
 Hexadecapole moment (field-independent basis, Debye-Ang**3):
 XXXX=          -7662.2225 YYYY=          -4284.0792 ZZZZ=          -3600.0365 XXXY=             37.9633
 XXXZ=             -6.9613 YYYX=             -3.7136 YYYZ=            -16.0273 ZZZX=            -34.3195
 ZZZY=              1.8691 XXYY=          -1977.1787 XXZZ=          -1848.2598 YYZZ=          -1301.5421
 XXYZ=              1.7464 YYXZ=             18.5860 ZZXY=            -50.9709
 N-N= 3.517837093738D+03 E-N=-1.026873426671D+04  KE= 1.381712158613D+03
 Calling FoFJK, ICntrl=      2127 FMM=T ISym2X=0 I1Cent= 0 IOpClX= 0 NMat=1 NMatS=1 NMatT=0.
 ***** Axes restored to original set *****
 -------------------------------------------------------------------
 Center     Atomic                   Forces (Hartrees/Bohr)
 Number     Number              X              Y              Z
 -------------------------------------------------------------------
      1        6           0.000415559    0.001955861   -0.000774871
      2        6           0.000218841   -0.002077152    0.000905470
      3        6          -0.000423040    0.000391376   -0.000270194
      4        6           0.000026591    0.001119645    0.000962498
      5        6          -0.000146373   -0.000351643    0.000076474
      6        6           0.000027862    0.000021865   -0.000203148
      7        6          -0.001986411    0.000935672    0.001830926
      8        6          -0.003471059    0.000338078   -0.001012730
      9        6           0.001163735    0.001486826    0.001002220
     10        6          -0.002522767   -0.005334604    0.002541149
     11        6          -0.004126991    0.005486977    0.000785183
     12        8           0.004809917   -0.006743067   -0.000979605
     13        6          -0.000184054    0.000220560   -0.000268619
     14        6          -0.000342626    0.000286684   -0.000128031
     15        6           0.000283117    0.000312202    0.000182745
     16        8           0.002470340    0.006366726   -0.004009447
     17        6           0.000437499    0.000092966   -0.000153085
     18        6           0.000464079    0.001563802   -0.000835786
     19        8           0.002419565   -0.003942607    0.001878722
     20        6          -0.000449047    0.000093554    0.000232979
     21        8           0.006535428    0.000585621    0.000920124
     22        6           0.000228915   -0.000306167   -0.000548108
     23        6           0.000708765   -0.001989453    0.000077879
     24        8          -0.000209150    0.000037827    0.000972803
     25        6          -0.000152405   -0.001772066   -0.001403638
     26        6          -0.000013603    0.000214550    0.000124130
     27        6           0.000852237    0.001225926    0.001474585
     28        6           0.000248664    0.000022244    0.000437378
     29        6           0.000417566   -0.000421882    0.000072458
     30        1          -0.001060109   -0.000419149    0.000614007
     31        1          -0.001231533   -0.000255889    0.000604073
     32        6          -0.000059426    0.000435049   -0.000001518
     33        1          -0.000004052    0.000096459   -0.000845750
     34        1          -0.001603738    0.000431808    0.000170343
     35        1           0.001589591    0.001024017   -0.000224444
     36        1          -0.000781473    0.000848463    0.000282198
     37        1           0.000603390    0.001249139    0.000342364
     38        1           0.000359221   -0.001476093   -0.000582843
     39        1           0.000820743    0.001269138    0.000401310
     40        1           0.000706306   -0.001584679   -0.000217160
     41        1          -0.001601511    0.000032625   -0.000710802
     42        1          -0.000826515   -0.001319733   -0.000209062
     43        1           0.001508530    0.000208206   -0.000599631
     44        1          -0.005247142   -0.000038694   -0.002866600
     45        1           0.000681680   -0.000509270    0.001554466
     46        1          -0.000084745    0.001356204   -0.000596276
     47        1          -0.000865488    0.000517445   -0.001227156
     48        1           0.000602623   -0.001604119   -0.000148687
     49        1          -0.000996510    0.000351938   -0.001234921
     50        1          -0.000489286    0.000580510    0.001438842
     51        1          -0.000509650    0.000153980    0.000856716
     52        1           0.000869673    0.000573568   -0.000286465
     53        1           0.001595759   -0.000166085    0.000228359
     54        1          -0.000908283   -0.001207962    0.000232664
     55        1          -0.000909381    0.001836799   -0.000133743
     56        1          -0.001074035   -0.000889140    0.000499755
     57        1           0.001489299   -0.000011649    0.000759181
     58        1          -0.000001422    0.000400627   -0.001719806
     59        1           0.000145943    0.000677135   -0.001575187
     60        1          -0.001348307   -0.000780490    0.000305710
     61        1           0.001300313   -0.001063639    0.000524692
     62        6           0.000205445   -0.000101083    0.000179717
     63        1           0.001256238   -0.000040326    0.000925025
     64        1          -0.000802321   -0.001534450   -0.000725288
[...]
                 (A) (A) (A) (A) (A) (A) (A) (A) (A) (A) (A) (A)
                 (A) (A) (A) (A) (A) (A) (A) (A) (A) (A) (A) (A)
                 (A) (A)
 The electronic state is 1-A.
 Alpha  occ. eigenvalues --  -19.17612 -19.14653 -19.13989 -19.10682 -19.10634
 Alpha  occ. eigenvalues --  -10.26653 -10.26465 -10.25853 -10.25646 -10.25346
 Alpha  occ. eigenvalues --  -10.25283 -10.24321 -10.20757 -10.19886 -10.19790
 Alpha  occ. eigenvalues --  -10.19491 -10.18733 -10.18614 -10.18445 -10.18390
 Alpha  occ. eigenvalues --  -10.17720 -10.17708 -10.17572 -10.17498 -10.17152
 Alpha  occ. eigenvalues --  -10.17001 -10.16897 -10.16813 -10.15935 -10.14893
 Alpha  occ. eigenvalues --  -10.14457  -1.10320  -1.06907  -1.04534  -1.03872
 Alpha  occ. eigenvalues --   -1.03717  -0.87730  -0.84613  -0.83379  -0.82419
 Alpha  occ. eigenvalues --   -0.81200  -0.80014  -0.77671  -0.75195  -0.74105
 Alpha  occ. eigenvalues --   -0.72626  -0.72152  -0.70689  -0.70342  -0.68742
 Alpha  occ. eigenvalues --   -0.66121  -0.64683  -0.64159  -0.62392  -0.61539
 Alpha  occ. eigenvalues --   -0.60520  -0.59773  -0.57978  -0.55773  -0.54618
 Alpha  occ. eigenvalues --   -0.53648  -0.53239  -0.51676  -0.51285  -0.50253
 Alpha  occ. eigenvalues --   -0.49399  -0.48886  -0.47677  -0.47092  -0.46764
 Alpha  occ. eigenvalues --   -0.46244  -0.45469  -0.44796  -0.44365  -0.44208
 Alpha  occ. eigenvalues --   -0.43521  -0.43053  -0.42773  -0.42433  -0.42172
 Alpha  occ. eigenvalues --   -0.41878  -0.41371  -0.41219  -0.40992  -0.40700
 Alpha  occ. eigenvalues --   -0.40077  -0.39943  -0.39286  -0.39025  -0.38926
 Alpha  occ. eigenvalues --   -0.38496  -0.38404  -0.38221  -0.37827  -0.37626
 Alpha  occ. eigenvalues --   -0.37330  -0.36036  -0.35984  -0.35511  -0.35240
 Alpha  occ. eigenvalues --   -0.34662  -0.34521  -0.33899  -0.33534  -0.33058
 Alpha  occ. eigenvalues --   -0.32484  -0.32188  -0.31547  -0.29375  -0.27802
 Alpha  occ. eigenvalues --   -0.27449  -0.26085  -0.25225  -0.24518  -0.24070
 Alpha virt. eigenvalues --   -0.05994  -0.02691  -0.01954  -0.01151  -0.00100
 Alpha virt. eigenvalues --    0.00236   0.00521   0.01057   0.01559   0.01927
 Alpha virt. eigenvalues --    0.02090   0.02332   0.02709   0.03394   0.03502
 Alpha virt. eigenvalues --    0.03923   0.03981   0.04423   0.04592   0.04728
 Alpha virt. eigenvalues --    0.05258   0.05421   0.05586   0.05960   0.06462
 Alpha virt. eigenvalues --    0.06577   0.06873   0.07109   0.07403   0.07682
 Alpha virt. eigenvalues --    0.07734   0.07957   0.08095   0.08785   0.08978
 Alpha virt. eigenvalues --    0.09049   0.09467   0.09630   0.09758   0.09776
 Alpha virt. eigenvalues --    0.10251   0.10566   0.10703   0.10726   0.11165
 Alpha virt. eigenvalues --    0.11259   0.11635   0.11927   0.12090   0.12406
 Alpha virt. eigenvalues --    0.12507   0.12826   0.13120   0.13357   0.13508
 Alpha virt. eigenvalues --    0.13762   0.14054   0.14207   0.14430   0.14743
 Alpha virt. eigenvalues --    0.14971   0.15480   0.15546   0.15727   0.16149
 Alpha virt. eigenvalues --    0.16272   0.16549   0.16794   0.17194   0.17214
 Alpha virt. eigenvalues --    0.17447   0.17770   0.17908   0.18138   0.18192
 Alpha virt. eigenvalues --    0.18299   0.18520   0.18614   0.18764   0.19091
 Alpha virt. eigenvalues --    0.19334   0.19587   0.19807   0.19865   0.20159
 Alpha virt. eigenvalues --    0.20216   0.20600   0.20773   0.20964   0.21267
 Alpha virt. eigenvalues --    0.21309   0.21640   0.21767   0.22033   0.22114
 Alpha virt. eigenvalues --    0.22326   0.22455   0.22567   0.22810   0.23019
 Alpha virt. eigenvalues --    0.23114   0.23444   0.23591   0.23659   0.23732
 Alpha virt. eigenvalues --    0.24212   0.24463   0.24565   0.24942   0.25005
 Alpha virt. eigenvalues --    0.25192   0.25660   0.25725   0.25923   0.26161
 Alpha virt. eigenvalues --    0.26374   0.26705   0.26834   0.26931   0.27257
 Alpha virt. eigenvalues --    0.27493   0.27722   0.27793   0.28037   0.28302
 Alpha virt. eigenvalues --    0.28659   0.28881   0.29277   0.29392   0.29530
 Alpha virt. eigenvalues --    0.29889   0.30019   0.30405   0.30429   0.30636
 Alpha virt. eigenvalues --    0.30763   0.31251   0.31701   0.31908   0.32131
 Alpha virt. eigenvalues --    0.32363   0.32642   0.32852   0.33534   0.33850
 Alpha virt. eigenvalues --    0.34133   0.34394   0.34597   0.34807   0.35208
 Alpha virt. eigenvalues --    0.35704   0.35807   0.35971   0.36650   0.37097
 Alpha virt. eigenvalues --    0.37269   0.37469   0.38070   0.38357   0.38610
 Alpha virt. eigenvalues --    0.39034   0.39435   0.39845   0.40160   0.40451
 Alpha virt. eigenvalues --    0.40869   0.41161   0.41504   0.42096   0.42326
 Alpha virt. eigenvalues --    0.42695   0.42946   0.43172   0.43710   0.43895
 Alpha virt. eigenvalues --    0.44280   0.44755   0.45108   0.45392   0.45769
 Alpha virt. eigenvalues --    0.46153   0.46760   0.47123   0.47138   0.47658
 Alpha virt. eigenvalues --    0.47795   0.48112   0.49123   0.49198   0.49462
 Alpha virt. eigenvalues --    0.49714   0.50008   0.50295   0.50980   0.51725
 Alpha virt. eigenvalues --    0.51977   0.52637   0.53046   0.53257   0.53811
 Alpha virt. eigenvalues --    0.54149   0.54783   0.55247   0.55718   0.56220
 Alpha virt. eigenvalues --    0.56382   0.56747   0.57173   0.57536   0.58250
 Alpha virt. eigenvalues --    0.58769   0.59221   0.59237   0.59764   0.59919
 Alpha virt. eigenvalues --    0.60277   0.60473   0.60865   0.61137   0.61664
 Alpha virt. eigenvalues --    0.62592   0.62923   0.63303   0.63787   0.64016
 Alpha virt. eigenvalues --    0.64469   0.64917   0.65497   0.65905   0.66171
 Alpha virt. eigenvalues --    0.66422   0.66851   0.67283   0.67436   0.67801
 Alpha virt. eigenvalues --    0.68035   0.68360   0.68552   0.69011   0.69485
 Alpha virt. eigenvalues --    0.69785   0.70164   0.70325   0.70758   0.70857
 Alpha virt. eigenvalues --    0.71087   0.71373   0.71641   0.71920   0.72316
 Alpha virt. eigenvalues --    0.72542   0.72600   0.72907   0.73032   0.73624
 Alpha virt. eigenvalues --    0.73876   0.74266   0.74438   0.74922   0.75272
 Alpha virt. eigenvalues --    0.75784   0.75865   0.76054   0.76927   0.77077
 Alpha virt. eigenvalues --    0.77688   0.77913   0.78351   0.78840   0.79193
 Alpha virt. eigenvalues --    0.79287   0.79475   0.80201   0.80702   0.81123
 Alpha virt. eigenvalues --    0.81237   0.82207   0.82461   0.82787   0.83439
 Alpha virt. eigenvalues --    0.83644   0.84118   0.84244   0.85224   0.85668
 Alpha virt. eigenvalues --    0.86197   0.86737   0.87649   0.88026   0.88734
 Alpha virt. eigenvalues --    0.89211   0.90552   0.91200   0.91838   0.92675
 Alpha virt. eigenvalues --    0.93340   0.93661   0.94794   0.96124   0.96245
 Alpha virt. eigenvalues --    0.97251   0.97811   0.98305   1.00818   1.01199
 Alpha virt. eigenvalues --    1.01362   1.03573   1.03919   1.04680   1.05940
 Alpha virt. eigenvalues --    1.07231   1.07495   1.08743   1.09880   1.10934
 Alpha virt. eigenvalues --    1.11544   1.12618   1.13221   1.14003   1.14769
 Alpha virt. eigenvalues --    1.15525   1.16120   1.17545   1.18809   1.19400
 Alpha virt. eigenvalues --    1.20964   1.22066   1.22346   1.23278   1.24082
 Alpha virt. eigenvalues --    1.24968   1.25630   1.26465   1.26900   1.28245
 Alpha virt. eigenvalues --    1.28993   1.29655   1.30372   1.31804   1.32078
 Alpha virt. eigenvalues --    1.32758   1.33825   1.34350   1.34660   1.35606
 Alpha virt. eigenvalues --    1.36151   1.37147   1.37851   1.38576   1.40505
 Alpha virt. eigenvalues --    1.41240   1.41470   1.42245   1.42766   1.43227
 Alpha virt. eigenvalues --    1.44623   1.45465   1.46498   1.47565   1.48102
 Alpha virt. eigenvalues --    1.48803   1.49670   1.50560   1.51378   1.52077
 Alpha virt. eigenvalues --    1.52974   1.53801   1.54075   1.54484   1.55262
 Alpha virt. eigenvalues --    1.56321   1.56452   1.57547   1.57775   1.58201
 Alpha virt. eigenvalues --    1.58707   1.59802   1.60186   1.60351   1.60800
 Alpha virt. eigenvalues --    1.61088   1.61472   1.61967   1.63157   1.63532
 Alpha virt. eigenvalues --    1.63814   1.64192   1.64968   1.65273   1.65876
 Alpha virt. eigenvalues --    1.66085   1.66453   1.66631   1.66980   1.67663
 Alpha virt. eigenvalues --    1.67962   1.68227   1.69518   1.69671   1.70452
 Alpha virt. eigenvalues --    1.70692   1.71097   1.71783   1.71936   1.72945
 Alpha virt. eigenvalues --    1.73429   1.74124   1.75298   1.75654   1.75907
 Alpha virt. eigenvalues --    1.76719   1.77439   1.78263   1.79429   1.79727
 Alpha virt. eigenvalues --    1.80661   1.81724   1.83347   1.83586   1.84085
 Alpha virt. eigenvalues --    1.84600   1.85679   1.86002   1.86585   1.86952
 Alpha virt. eigenvalues --    1.88274   1.89145   1.89817   1.90634   1.91903
 Alpha virt. eigenvalues --    1.92880   1.93841   1.93984   1.95409   1.96573
 Alpha virt. eigenvalues --    1.97355   1.98725   2.00279   2.01123   2.02227
 Alpha virt. eigenvalues --    2.03558   2.03981   2.04242   2.05140   2.06814
 Alpha virt. eigenvalues --    2.07366   2.07613   2.08316   2.09062   2.09319
 Alpha virt. eigenvalues --    2.10806   2.12452   2.14266   2.14864   2.16667
 Alpha virt. eigenvalues --    2.17283   2.18636   2.19393   2.22199   2.22363
 Alpha virt. eigenvalues --    2.22860   2.23553   2.25222   2.25941   2.27056
 Alpha virt. eigenvalues --    2.27560   2.29745   2.31580   2.33374   2.33674
 Alpha virt. eigenvalues --    2.35275   2.37531   2.38922   2.40144   2.42561
 Alpha virt. eigenvalues --    2.44313   2.47213   2.48030   2.49807   2.51415
 Alpha virt. eigenvalues --    2.51934   2.52725   2.52911   2.54527   2.54877
 Alpha virt. eigenvalues --    2.55829   2.56442   2.56676   2.57540   2.58085
 Alpha virt. eigenvalues --    2.59278   2.59949   2.60393   2.61144   2.62780
 Alpha virt. eigenvalues --    2.63734   2.64088   2.65208   2.66471   2.66859
 Alpha virt. eigenvalues --    2.67079   2.68644   2.69007   2.69949   2.70355
 Alpha virt. eigenvalues --    2.70695   2.71410   2.72134   2.73308   2.74717
 Alpha virt. eigenvalues --    2.75982   2.77475   2.81919   2.83582   2.84550
 Alpha virt. eigenvalues --    2.85236   2.87249   2.88921   2.89403   2.89688
 Alpha virt. eigenvalues --    2.91411   2.92890   2.93374   2.94554   2.95354
 Alpha virt. eigenvalues --    2.96947   2.97637   2.98806   2.99150   3.00181
 Alpha virt. eigenvalues --    3.00576   3.01600   3.02882   3.03537   3.04348
 Alpha virt. eigenvalues --    3.04657   3.05368   3.06736   3.08515   3.09752
 Alpha virt. eigenvalues --    3.10091   3.11347   3.11835   3.12856   3.14017
 Alpha virt. eigenvalues --    3.14502   3.15659   3.16367   3.16752   3.17252
 Alpha virt. eigenvalues --    3.18388   3.20092   3.20755   3.21807   3.21961
 Alpha virt. eigenvalues --    3.23484   3.24485   3.25187   3.26024   3.26674
 Alpha virt. eigenvalues --    3.26837   3.27546   3.28032   3.28899   3.30310
 Alpha virt. eigenvalues --    3.31069   3.31357   3.32909   3.34081   3.34546
 Alpha virt. eigenvalues --    3.34960   3.36176   3.37797   3.38745   3.39230
 Alpha virt. eigenvalues --    3.39713   3.41661   3.41965   3.43086   3.45302
 Alpha virt. eigenvalues --    3.47110   3.48234   3.51491   3.53156   3.54001
 Alpha virt. eigenvalues --    3.55303   3.59942   3.61423   3.63894   3.74689
 Alpha virt. eigenvalues --    3.77725   3.78144   3.80134   3.88048   3.89549
 Alpha virt. eigenvalues --    3.91494   3.97374   3.98519   4.01553   4.03338
 Alpha virt. eigenvalues --    4.05941   4.06170   4.10354   4.10692   4.12752
 Alpha virt. eigenvalues --    4.15211   4.17993   4.19996   4.22166   4.23104
 Alpha virt. eigenvalues --    4.23845   4.28070   4.29004   4.33238   4.45394
 Alpha virt. eigenvalues --    4.61381   5.13917   5.17694   5.18147   5.21919
 Alpha virt. eigenvalues --    5.24204   5.29495   5.32022   5.33471   5.42167
 Alpha virt. eigenvalues --    5.42836   5.57079   5.66680   5.73613   5.79183
 Alpha virt. eigenvalues --    5.84546  23.45458  23.47778  23.51520  23.53085
 Alpha virt. eigenvalues --   23.63879  23.65502  23.66262  23.67609  23.69469
 Alpha virt. eigenvalues --   23.70916  23.73219  23.73971  23.76648  23.79017
 Alpha virt. eigenvalues --   23.79155  23.79793  23.82867  23.84935  23.86694
 Alpha virt. eigenvalues --   23.87022  23.89355  23.90484  23.97088  24.17636
 Alpha virt. eigenvalues --   24.19976  24.23382  49.99378  50.00475  50.02882
 Alpha virt. eigenvalues --   50.03114  50.07655
          Condensed to atoms (all electrons):
 Mulliken atomic charges:
              1
     1  C   -0.285441
     2  C    0.685409
     3  C   -0.169753
     4  C   -0.815108
     5  C    1.183778
     6  C   -0.759051
     7  C   -1.037538
     8  C    0.304563
     9  C    0.627397
    10  C   -0.632264
    11  C    0.113317
    12  O   -0.184234
    13  C    0.242570
    14  C   -0.374396
    15  C   -1.110504
    16  O   -0.194181
    17  C   -0.174059
    18  C    0.588908
    19  O    0.147346
    20  C   -1.259507
    21  O   -0.011114
    22  C   -0.498214
    23  C   -0.585868
    24  O    0.036210
    25  C    0.962454
    26  C   -1.006688
    27  C   -1.007533
    28  C   -0.827175
    29  C   -0.682920
    30  H    0.235187
    31  H    0.272922
    32  C   -1.051051
    33  H    0.203478
    34  H    0.238143
    35  H    0.284671
    36  H    0.230507
    37  H    0.222368
    38  H    0.264722
    39  H    0.232400
    40  H    0.269919
    41  H    0.277033
    42  H    0.268752
    43  H    0.282124
    44  H    0.288604
    45  H    0.248036
    46  H    0.276381
    47  H    0.231578
    48  H    0.268369
    49  H    0.263771
    50  H    0.253960
    51  H    0.230260
    52  H    0.236569
    53  H    0.265046
    54  H    0.254202
    55  H    0.311111
    56  H    0.259962
    57  H    0.269730
    58  H    0.265064
    59  H    0.257171
    60  H    0.254270
    61  H    0.261215
    62  C   -0.964166
    63  H    0.247064
    64  H    0.271607
    65  H    0.242620
 Sum of Mulliken atomic charges =   0.00000
 Mulliken charges with hydrogens summed into heavy atoms:
              1
     1  C   -0.081963
     2  C    0.685409
     3  C    0.103169
     4  C   -0.815108
     5  C    1.183778
     6  C   -0.236237
     7  C   -1.037538
     8  C    0.304563
     9  C    0.627397
    10  C   -0.632264
    11  C    0.113317
    12  O   -0.184234
    13  C    0.473077
    14  C    0.112693
    15  C   -0.331152
    16  O   -0.194181
    17  C    0.061129
    18  C    0.588908
    19  O    0.147346
    20  C   -0.708631
    21  O    0.277489
    22  C    0.026203
    23  C   -0.354290
    24  O    0.036210
    25  C    0.962454
    26  C   -0.220588
    27  C   -0.540704
    28  C    0.003183
    29  C    0.111835
    32  C   -0.278395
    62  C   -0.202874
 Sum of Mulliken charges with hydrogens summed into heavy atoms =   0.00000
 Electronic spatial extent (au):  <R**2>=          11288.0724
 Charge=              0.0000 electrons
 Dipole moment (field-independent basis, Debye):
    X=              5.1455    Y=              2.0428    Z=             -1.9957  Tot=              5.8850
 Quadrupole moment (field-independent basis, Debye-Ang):
   XX=           -192.8033   YY=           -178.4006   ZZ=           -188.3446
   XY=              0.9157   XZ=              5.5168   YZ=              1.5005
 Traceless Quadrupole moment (field-independent basis, Debye-Ang):
   XX=             -6.2872   YY=              8.1156   ZZ=             -1.8284
   XY=              0.9157   XZ=              5.5168   YZ=              1.5005
 Octapole moment (field-independent basis, Debye-Ang**2):
  XXX=             47.6349  YYY=             51.8333  ZZZ=              1.4692  XYY=              8.8687
  XXY=            -29.0320  XXZ=            -37.5301  XZZ=             22.3256  YZZ=             11.9022
  YYZ=            -29.0600  XYZ=              5.9545
 Hexadecapole moment (field-independent basis, Debye-Ang**3):
 XXXX=          -7626.8593 YYYY=          -4275.8828 ZZZZ=          -3585.7621 XXXY=             31.7557
 XXXZ=              1.5565 YYYX=             -4.1400 YYYZ=            -11.5418 ZZZX=            -29.2642
 ZZZY=              1.0085 XXYY=          -1968.0698 XXZZ=          -1846.7719 YYZZ=          -1299.5895
 XXYZ=             -0.5757 YYXZ=             16.4884 ZZXY=            -49.3698
 N-N= 3.519694499043D+03 E-N=-1.027263384683D+04  KE= 1.381921192782D+03
 1\1\GINC-B0801\FOpt\RB3LYP\6-311+G(d)\C26H34O5\CAOFEI\13-Apr-2021\0\\#
  opt b3lyp/6-311+g(d) geom=connectivity\\Title Card Required\\0,1\C,1.
 5072934519,-0.0243915647,3.2327647712\C,1.6227047283,1.2053881351,2.72
 66340152\C,1.7674550773,1.4334798079,1.2385213682\C,1.4931440647,0.198
 8899339,0.324358407\C,0.9743769558,-1.1104297945,0.9782766208\C,1.5243
 414468,-1.282395474,2.4128019523\C,0.5472581574,0.7438094318,-0.778210
 742\C,-0.9196568506,0.6301297774,-0.4205303883\C,-1.4553128897,-0.3616
 479738,0.3299404299\C,-0.5664647104,-1.3016383944,1.0132095451\C,-2.94
 5395468,-0.4480462148,0.5709598776\O,-3.5527872037,0.5171784918,0.9851
 359006\C,-3.6691176733,-1.7561514007,0.2382948483\C,-4.676371939,-1.51
 27967746,-0.9076679215\C,-4.3763225102,-2.2955167721,1.491644487\O,-1.
 0147327964,-2.2383612304,1.6611844525\C,0.6699904322,2.2803218888,-0.8
 020065279\C,-0.6818634699,2.7264585274,-1.4075623811\O,-1.6039275554,1
 .6441110655,-0.9469689555\C,0.8904364693,2.5933918394,0.6892442109\O,0
 .7313260859,0.1000461419,-2.0267335747\C,1.5785915669,-2.1926582853,0.
 0452981817\C,2.9426827056,-1.6118102248,-0.3075366591\O,2.7315493151,-
 0.1684097195,-0.3357240716\C,3.6139987062,-2.0320854236,-1.5976262225\
 C,4.9291629845,-1.3489290826,-1.8761092736\C,3.1114641441,-2.969092186
 9,-2.4033113385\C,-0.6847275031,2.7290118418,-2.934780655\C,-1.2567198
 638,4.0284824315,-0.8637245848\H,1.5133212163,2.6080211798,-1.41432447
 31\H,2.8155511586,1.6939321943,1.042130175\C,1.6846473428,2.427567747,
 3.606515009\H,1.4382903553,-0.1474605286,4.311605758\H,2.5542374663,-1
 .6599459606,2.3676372237\H,0.9427464332,-2.0684974857,2.8977024086\H,-
 2.9289170379,-2.4908957379,-0.0907295028\H,-5.2501587356,-2.4366332054
 ,-1.0447777947\H,-5.3911414697,-0.748890935,-0.5847643602\H,-4.9107579
 892,-3.2201412155,1.2545855264\H,-5.1001118502,-1.5690599136,1.8689385
 926\H,-3.6572224104,-2.5131904837,2.2829804016\H,1.351882437,3.5691844
 481,0.8504566485\H,-0.0666359455,2.6027798669,1.2169473754\H,1.6824773
 679,-0.0813291627,-2.0984914745\H,0.9612762084,-2.3035919287,-0.847618
 7449\H,1.6427960495,-3.1608735548,0.5442580422\H,3.6522057701,-1.80803
 42246,0.5083234161\H,4.8088350075,-0.2631504553,-1.9240316813\H,5.6485
 955135,-1.5463886441,-1.0728548091\H,5.3681403357,-1.6914155856,-2.815
 0307519\H,3.635716178,-3.2730290442,-3.3041678328\H,2.1754362936,-3.47
 69559156,-2.2024340831\H,-1.7010409286,2.881051683,-3.3057337415\H,-0.
 0645801141,3.5496536693,-3.307228509\H,-0.2991031624,1.7925743008,-3.3
 343635751\H,-0.5956482685,4.8623251024,-1.1164666301\H,-2.2332925922,4
 .2243010767,-1.3113631643\H,-1.384632196,4.002952173,0.2178845997\H,1.
 6529258417,2.1552945758,4.6633089292\H,2.6085274004,2.9931886576,3.433
 3644019\H,0.855676382,3.1168834143,3.4163252959\C,-4.044128703,-1.1052
 370601,-2.2413303788\H,-4.807051996,-1.0086562844,-3.0193654711\H,-3.5
 274786624,-0.1439608303,-2.1727482211\H,-3.3175425544,-1.8486377303,-2
 .5850673768\\Version=EM64L-G09RevB.01\State=1-A\HF=-1387.6503186\RMSD=
 7.670e-09\RMSF=4.306e-06\Dipole=2.0386159,0.7886757,-0.7633733\Quadrup
 ole=-4.7028734,5.9863502,-1.2834769,0.7532224,4.1060695,1.1642847\PG=C
 01 [X(C26H34O5)]\\@


 FORGIVE MY NONSENSE AS I ALSO FORGIVE THOSE WHO THINK THEY TALK SENSE

                                                       -- ROBERT FROST
 Job cpu time:  1 days  4 hours 50 minutes 48.9 seconds.
 File lengths (MBytes):  RWF=    372 Int=      0 D2E=      0 Chk=     38 Scr=      1
 Normal termination of Gaussian 09 at Tue Apr 13 17:53:45 2021.
