 Entering Gaussian System, Link 0=g09
 Initial command:
 /public/software/g09/g09/l1.exe /tmp/Gau-27204.inp -scrdir=/tmp/
 Entering Link 1 = /public/software/g09/g09/l1.exe PID=     27205.
  
 Copyright (c) 1988,1990,1992,1993,1995,1998,2003,2009,2010,
            Gaussian, Inc.  All Rights Reserved.
  
 This is part of the Gaussian(R) 09 program.  It is based on
 the Gaussian(R) 03 system (copyright 2003, Gaussian, Inc.),
 the Gaussian(R) 98 system (copyright 1998, Gaussian, Inc.),
 the Gaussian(R) 94 system (copyright 1995, Gaussian, Inc.),
 the Gaussian 92(TM) system (copyright 1992, Gaussian, Inc.),
 the Gaussian 90(TM) system (copyright 1990, Gaussian, Inc.),
 the Gaussian 88(TM) system (copyright 1988, Gaussian, Inc.),
 the Gaussian 86(TM) system (copyright 1986, Carnegie Mellon
 University), and the Gaussian 82(TM) system (copyright 1983,
 Carnegie Mellon University). Gaussian is a federally registered
 trademark of Gaussian, Inc.
  
 This software contains proprietary and confidential information,
 including trade secrets, belonging to Gaussian, Inc.
  
 This software is provided under written license and may be
 used, copied, transmitted, or stored only in accord with that
 written license.
  
 The following legend is applicable only to US Government
 contracts under FAR:
  
                    RESTRICTED RIGHTS LEGEND
  
 Use, reproduction and disclosure by the US Government is
 subject to restrictions as set forth in subparagraphs (a)
 and (c) of the Commercial Computer Software - Restricted
 Rights clause in FAR 52.227-19.
  
 Gaussian, Inc.
 340 Quinnipiac St., Bldg. 40, Wallingford CT 06492
  
  
 ---------------------------------------------------------------
 Warning -- This program may not be used in any manner that
 competes with the business of Gaussian, Inc. or will provide
 assistance to any competitor of Gaussian, Inc.  The licensee
 of this program is prohibited from giving any competitor of
 Gaussian, Inc. access to this program.  By using this program,
 the user acknowledges that Gaussian, Inc. is engaged in the
 business of creating and licensing software in the field of
 computational chemistry and represents and warrants to the
 licensee that it is not a competitor of Gaussian, Inc. and that
 it will not use this program in any manner prohibited above.
 ---------------------------------------------------------------
  

 Cite this work as:
 Gaussian 09, Revision B.01,
 M. J. Frisch, G. W. Trucks, H. B. Schlegel, G. E. Scuseria, 
 M. A. Robb, J. R. Cheeseman, G. Scalmani, V. Barone, B. Mennucci, 
 G. A. Petersson, H. Nakatsuji, M. Caricato, X. Li, H. P. Hratchian, 
 A. F. Izmaylov, J. Bloino, G. Zheng, J. L. Sonnenberg, M. Hada, 
 M. Ehara, K. Toyota, R. Fukuda, J. Hasegawa, M. Ishida, T. Nakajima, 
 Y. Honda, O. Kitao, H. Nakai, T. Vreven, J. A. Montgomery, Jr., 
 J. E. Peralta, F. Ogliaro, M. Bearpark, J. J. Heyd, E. Brothers, 
 K. N. Kudin, V. N. Staroverov, T. Keith, R. Kobayashi, J. Normand, 
 K. Raghavachari, A. Rendell, J. C. Burant, S. S. Iyengar, J. Tomasi, 
 M. Cossi, N. Rega, J. M. Millam, M. Klene, J. E. Knox, J. B. Cross, 
 V. Bakken, C. Adamo, J. Jaramillo, R. Gomperts, R. E. Stratmann, 
 O. Yazyev, A. J. Austin, R. Cammi, C. Pomelli, J. W. Ochterski, 
 R. L. Martin, K. Morokuma, V. G. Zakrzewski, G. A. Voth, 
 P. Salvador, J. J. Dannenberg, S. Dapprich, A. D. Daniels, 
 O. Farkas, J. B. Foresman, J. V. Ortiz, J. Cioslowski, 
 and D. J. Fox, Gaussian, Inc., Wallingford CT, 2010.
 
 ******************************************
 Gaussian 09:  EM64L-G09RevB.01 12-Aug-2010
                 2-Feb-2021 
 ******************************************
 %mem=600MW
 %nprocshared=10
 Will use up to   10 processors via shared memory.
 --------------------------------------
 # opt b3lyp/6-31g(d) geom=connectivity
 --------------------------------------
 1/14=-1,18=20,19=15,26=3,38=1,57=2/1,3;
 2/9=110,12=2,17=6,18=5,40=1/2;
 3/5=1,6=6,7=1,11=2,16=1,25=1,30=1,71=1,74=-5/1,2,3;
 4//1;
 5/5=2,38=5/2;
 6/7=2,8=2,9=2,10=2,28=1/1;
 7//1,2,3,16;
 1/14=-1,18=20,19=15/3(2);
 2/9=110/2;
 99//99;
 2/9=110/2;
 3/5=1,6=6,7=1,11=2,16=1,25=1,30=1,71=1,74=-5/1,2,3;
 4/5=5,16=3/1;
 5/5=2,38=5/2;
 7//1,2,3,16;
 1/14=-1,18=20,19=15/3(-5);
 2/9=110/2;
 6/7=2,8=2,9=2,10=2,19=2,28=1/1;
 99/9=1/99;
 -------------------
 Title Card Required
 -------------------
 Symbolic Z-matrix:
 Charge =  0 Multiplicity = 1
 C                     3.79395  -3.65623   0.01122 
 C                     3.26756  -2.52268   0.63456 
 C                     2.08567  -1.92764   0.18564 
 C                     1.37821  -2.46594  -0.90185 
 C                     1.87362  -3.62972  -1.5069 
 C                     3.07247  -4.21694  -1.0523 
 C                     0.13356  -1.85771  -1.40556 
 C                    -0.52831  -2.49784  -2.38184 
 O                    -0.0601   -3.68456  -2.9759 
 C                     1.12132  -4.25669  -2.61679 
 C                    -0.36813  -0.55229  -0.83042 
 C                    -1.55167   0.11122  -1.56946 
 C                    -2.52017  -0.974    -2.07476 
 C                    -1.83804  -2.02771  -2.94485 
 C                     5.05617  -4.3032    0.51188 
 O                     3.5867   -5.36161  -1.61387 
 O                     3.92726  -1.99365   1.70903 
 O                     1.55213  -5.26416  -3.17149 
 O                    -2.34458   0.91579  -0.66246 
 C                    -1.70754   2.0578   -0.04908 
 C                    -2.74024   3.20128  -0.03458 
 C                    -2.19767   4.43543   0.70766 
 C                    -1.4949    4.11584   1.98506 
 C                    -1.08696   2.87541   2.30701 
 C                    -1.28874   1.70005   1.38893 
 O                    -3.08133   3.62331  -1.36661 
 O                    -3.28027   5.31309   1.00886 
 C                    -0.36843   2.56948   3.57761 
 O                    -0.38065   3.62424   4.42708 
 O                     0.15595   1.48518   3.79177 
 C                     0.27855   3.38213   5.67021 
 C                    -1.13719   0.96604  -2.78489 
 O                    -0.0202    0.56156  -3.41335 
 O                    -1.7496    1.94134  -3.19824 
 H                     1.72055  -1.04519   0.70206 
 H                     0.45638   0.17049  -0.78358 
 H                    -0.6744   -0.761     0.20268 
 H                    -3.35021  -0.52107  -2.63304 
 H                    -2.98889  -1.46656  -1.21076 
 H                    -2.51828  -2.88118  -3.05345 
 H                    -1.66815  -1.63187  -3.95314 
 H                     5.64569  -4.71282  -0.31506 
 H                     5.7053   -3.58479   1.0227 
 H                     4.81001  -5.11017   1.20897 
 H                     3.00036  -5.65736  -2.34535 
 H                     3.39818  -1.28125   2.10447 
 H                    -0.83428   2.37183  -0.63391 
 H                    -3.67976   2.85669   0.4158 
 H                    -1.51258   4.99609   0.06012 
 H                    -1.31804   4.95914   2.64884 
 H                    -0.35605   1.12806   1.3355 
 H                    -2.03382   1.02693   1.83316 
 H                    -2.99204   2.84771  -1.95939 
 H                    -3.76724   5.41209   0.16736 
 H                     0.202     4.28879   6.2767 
 H                    -0.20747   2.56272   6.20907 
 H                     1.33832   3.16369   5.50553 
 H                     0.08603   1.18242  -4.1666 
 

 GradGradGradGradGradGradGradGradGradGradGradGradGradGradGradGradGradGrad
 Berny optimization.
 Initialization pass.
                           ----------------------------
                           !    Initial Parameters    !
                           ! (Angstroms and Degrees)  !
 --------------------------                            --------------------------
 ! Name  Definition              Value          Derivative Info.                !
 --------------------------------------------------------------------------------
 ! R1    R(1,2)                  1.3966         estimate D2E/DX2                !
 ! R2    R(1,6)                  1.4021         estimate D2E/DX2                !
 ! R3    R(1,15)                 1.5041         estimate D2E/DX2                !
 ! R4    R(2,3)                  1.3973         estimate D2E/DX2                !
 ! R5    R(2,17)                 1.3673         estimate D2E/DX2                !
 ! R6    R(3,4)                  1.4046         estimate D2E/DX2                !
 ! R7    R(3,35)                 1.0857         estimate D2E/DX2                !
 ! R8    R(4,5)                  1.4021         estimate D2E/DX2                !
 ! R9    R(4,7)                  1.474          estimate D2E/DX2                !
 ! R10   R(5,6)                  1.4102         estimate D2E/DX2                !
 ! R11   R(5,10)                 1.4802         estimate D2E/DX2                !
 ! R12   R(6,16)                 1.3748         estimate D2E/DX2                !
 ! R13   R(7,8)                  1.342          estimate D2E/DX2                !
 ! R14   R(7,11)                 1.5121         estimate D2E/DX2                !
 ! R15   R(8,9)                  1.4073         estimate D2E/DX2                !
 ! R16   R(8,14)                 1.5011         estimate D2E/DX2                !
 ! R17   R(9,10)                 1.3609         estimate D2E/DX2                !
 ! R18   R(10,18)                1.2281         estimate D2E/DX2                !
 ! R19   R(11,12)                1.5451         estimate D2E/DX2                !
 ! R20   R(11,36)                1.0975         estimate D2E/DX2                !
 ! R21   R(11,37)                1.0976         estimate D2E/DX2                !
 ! R22   R(12,13)                1.5398         estimate D2E/DX2                !
 ! R23   R(12,19)                1.4487         estimate D2E/DX2                !
 ! R24   R(12,32)                1.5427         estimate D2E/DX2                !
 ! R25   R(13,14)                1.5273         estimate D2E/DX2                !
 ! R26   R(13,38)                1.0981         estimate D2E/DX2                !
 ! R27   R(13,39)                1.0995         estimate D2E/DX2                !
 ! R28   R(14,40)                1.0968         estimate D2E/DX2                !
 ! R29   R(14,41)                1.0964         estimate D2E/DX2                !
 ! R30   R(15,42)                1.0951         estimate D2E/DX2                !
 ! R31   R(15,43)                1.0947         estimate D2E/DX2                !
 ! R32   R(15,44)                1.0944         estimate D2E/DX2                !
 ! R33   R(16,45)                0.983          estimate D2E/DX2                !
 ! R34   R(17,46)                0.9715         estimate D2E/DX2                !
 ! R35   R(18,45)                1.713          estimate D2E/DX2                !
 ! R36   R(19,20)                1.4444         estimate D2E/DX2                !
 ! R37   R(20,21)                1.5409         estimate D2E/DX2                !
 ! R38   R(20,25)                1.5399         estimate D2E/DX2                !
 ! R39   R(20,47)                1.0969         estimate D2E/DX2                !
 ! R40   R(21,22)                1.539          estimate D2E/DX2                !
 ! R41   R(21,26)                1.4383         estimate D2E/DX2                !
 ! R42   R(21,48)                1.0974         estimate D2E/DX2                !
 ! R43   R(22,23)                1.4926         estimate D2E/DX2                !
 ! R44   R(22,27)                1.4259         estimate D2E/DX2                !
 ! R45   R(22,49)                1.0968         estimate D2E/DX2                !
 ! R46   R(23,24)                1.3449         estimate D2E/DX2                !
 ! R47   R(23,50)                1.0877         estimate D2E/DX2                !
 ! R48   R(24,25)                1.505          estimate D2E/DX2                !
 ! R49   R(24,28)                1.4914         estimate D2E/DX2                !
 ! R50   R(25,51)                1.0954         estimate D2E/DX2                !
 ! R51   R(25,52)                1.098          estimate D2E/DX2                !
 ! R52   R(26,53)                0.9803         estimate D2E/DX2                !
 ! R53   R(27,54)                0.9773         estimate D2E/DX2                !
 ! R54   R(28,29)                1.3543         estimate D2E/DX2                !
 ! R55   R(28,30)                1.2233         estimate D2E/DX2                !
 ! R56   R(29,31)                1.4278         estimate D2E/DX2                !
 ! R57   R(31,55)                1.0935         estimate D2E/DX2                !
 ! R58   R(31,56)                1.0945         estimate D2E/DX2                !
 ! R59   R(31,57)                1.0945         estimate D2E/DX2                !
 ! R60   R(32,33)                1.344          estimate D2E/DX2                !
 ! R61   R(32,34)                1.2236         estimate D2E/DX2                !
 ! R62   R(33,58)                0.9819         estimate D2E/DX2                !
 ! A1    A(2,1,6)              117.98           estimate D2E/DX2                !
 ! A2    A(2,1,15)             121.1192         estimate D2E/DX2                !
 ! A3    A(6,1,15)             120.8148         estimate D2E/DX2                !
 ! A4    A(1,2,3)              121.4016         estimate D2E/DX2                !
 ! A5    A(1,2,17)             118.8761         estimate D2E/DX2                !
 ! A6    A(3,2,17)             119.7219         estimate D2E/DX2                !
 ! A7    A(2,3,4)              120.7681         estimate D2E/DX2                !
 ! A8    A(2,3,35)             118.5397         estimate D2E/DX2                !
 ! A9    A(4,3,35)             120.6896         estimate D2E/DX2                !
 ! A10   A(3,4,5)              118.3095         estimate D2E/DX2                !
 ! A11   A(3,4,7)              122.1218         estimate D2E/DX2                !
 ! A12   A(5,4,7)              119.5632         estimate D2E/DX2                !
 ! A13   A(4,5,6)              120.4572         estimate D2E/DX2                !
 ! A14   A(4,5,10)             119.7073         estimate D2E/DX2                !
 ! A15   A(6,5,10)             119.829          estimate D2E/DX2                !
 ! A16   A(1,6,5)              121.0258         estimate D2E/DX2                !
 ! A17   A(1,6,16)             116.7639         estimate D2E/DX2                !
 ! A18   A(5,6,16)             122.2087         estimate D2E/DX2                !
 ! A19   A(4,7,8)              117.9183         estimate D2E/DX2                !
 ! A20   A(4,7,11)             120.4235         estimate D2E/DX2                !
 ! A21   A(8,7,11)             121.6582         estimate D2E/DX2                !
 ! A22   A(7,8,9)              123.0413         estimate D2E/DX2                !
 ! A23   A(7,8,14)             123.626          estimate D2E/DX2                !
 ! A24   A(9,8,14)             113.3322         estimate D2E/DX2                !
 ! A25   A(8,9,10)             122.1379         estimate D2E/DX2                !
 ! A26   A(5,10,9)             117.4523         estimate D2E/DX2                !
 ! A27   A(5,10,18)            120.5216         estimate D2E/DX2                !
 ! A28   A(9,10,18)            122.0202         estimate D2E/DX2                !
 ! A29   A(7,11,12)            116.2921         estimate D2E/DX2                !
 ! A30   A(7,11,36)            109.6049         estimate D2E/DX2                !
 ! A31   A(7,11,37)            106.6444         estimate D2E/DX2                !
 ! A32   A(12,11,36)           108.2455         estimate D2E/DX2                !
 ! A33   A(12,11,37)           108.5499         estimate D2E/DX2                !
 ! A34   A(36,11,37)           107.1397         estimate D2E/DX2                !
 ! A35   A(11,12,13)           109.6401         estimate D2E/DX2                !
 ! A36   A(11,12,19)           110.9956         estimate D2E/DX2                !
 ! A37   A(11,12,32)           114.1431         estimate D2E/DX2                !
 ! A38   A(13,12,19)           104.6323         estimate D2E/DX2                !
 ! A39   A(13,12,32)           107.516          estimate D2E/DX2                !
 ! A40   A(19,12,32)           109.4261         estimate D2E/DX2                !
 ! A41   A(12,13,14)           113.0958         estimate D2E/DX2                !
 ! A42   A(12,13,38)           110.5844         estimate D2E/DX2                !
 ! A43   A(12,13,39)           109.0265         estimate D2E/DX2                !
 ! A44   A(14,13,38)           109.4224         estimate D2E/DX2                !
 ! A45   A(14,13,39)           109.2085         estimate D2E/DX2                !
 ! A46   A(38,13,39)           105.1922         estimate D2E/DX2                !
 ! A47   A(8,14,13)            113.0842         estimate D2E/DX2                !
 ! A48   A(8,14,40)            109.5462         estimate D2E/DX2                !
 ! A49   A(8,14,41)            108.8306         estimate D2E/DX2                !
 ! A50   A(13,14,40)           108.4378         estimate D2E/DX2                !
 ! A51   A(13,14,41)           110.1217         estimate D2E/DX2                !
 ! A52   A(40,14,41)           106.6167         estimate D2E/DX2                !
 ! A53   A(1,15,42)            111.1797         estimate D2E/DX2                !
 ! A54   A(1,15,43)            111.7554         estimate D2E/DX2                !
 ! A55   A(1,15,44)            109.9029         estimate D2E/DX2                !
 ! A56   A(42,15,43)           106.1783         estimate D2E/DX2                !
 ! A57   A(42,15,44)           109.0425         estimate D2E/DX2                !
 ! A58   A(43,15,44)           108.6654         estimate D2E/DX2                !
 ! A59   A(6,16,45)            109.3504         estimate D2E/DX2                !
 ! A60   A(2,17,46)            109.9275         estimate D2E/DX2                !
 ! A61   A(12,19,20)           117.6189         estimate D2E/DX2                !
 ! A62   A(19,20,21)           107.1667         estimate D2E/DX2                !
 ! A63   A(19,20,25)           109.4405         estimate D2E/DX2                !
 ! A64   A(19,20,47)           110.5521         estimate D2E/DX2                !
 ! A65   A(21,20,25)           110.2364         estimate D2E/DX2                !
 ! A66   A(21,20,47)           109.0341         estimate D2E/DX2                !
 ! A67   A(25,20,47)           110.3579         estimate D2E/DX2                !
 ! A68   A(20,21,22)           111.3074         estimate D2E/DX2                !
 ! A69   A(20,21,26)           111.5904         estimate D2E/DX2                !
 ! A70   A(20,21,48)           110.1593         estimate D2E/DX2                !
 ! A71   A(22,21,26)           107.1551         estimate D2E/DX2                !
 ! A72   A(22,21,48)           110.837          estimate D2E/DX2                !
 ! A73   A(26,21,48)           105.616          estimate D2E/DX2                !
 ! A74   A(21,22,23)           114.0199         estimate D2E/DX2                !
 ! A75   A(21,22,27)           109.1362         estimate D2E/DX2                !
 ! A76   A(21,22,49)           110.2065         estimate D2E/DX2                !
 ! A77   A(23,22,27)           107.969          estimate D2E/DX2                !
 ! A78   A(23,22,49)           108.701          estimate D2E/DX2                !
 ! A79   A(27,22,49)           106.5184         estimate D2E/DX2                !
 ! A80   A(22,23,24)           123.0373         estimate D2E/DX2                !
 ! A81   A(22,23,50)           115.6484         estimate D2E/DX2                !
 ! A82   A(24,23,50)           121.3111         estimate D2E/DX2                !
 ! A83   A(23,24,25)           122.2495         estimate D2E/DX2                !
 ! A84   A(23,24,28)           122.6346         estimate D2E/DX2                !
 ! A85   A(25,24,28)           115.0933         estimate D2E/DX2                !
 ! A86   A(20,25,24)           115.1306         estimate D2E/DX2                !
 ! A87   A(20,25,51)           107.8981         estimate D2E/DX2                !
 ! A88   A(20,25,52)           109.6143         estimate D2E/DX2                !
 ! A89   A(24,25,51)           108.8686         estimate D2E/DX2                !
 ! A90   A(24,25,52)           108.8412         estimate D2E/DX2                !
 ! A91   A(51,25,52)           106.1052         estimate D2E/DX2                !
 ! A92   A(21,26,53)           107.8346         estimate D2E/DX2                !
 ! A93   A(22,27,54)           104.9985         estimate D2E/DX2                !
 ! A94   A(24,28,29)           111.7311         estimate D2E/DX2                !
 ! A95   A(24,28,30)           122.5117         estimate D2E/DX2                !
 ! A96   A(29,28,30)           125.7571         estimate D2E/DX2                !
 ! A97   A(28,29,31)           114.1969         estimate D2E/DX2                !
 ! A98   A(29,31,55)           108.0583         estimate D2E/DX2                !
 ! A99   A(29,31,56)           110.5231         estimate D2E/DX2                !
 ! A100  A(29,31,57)           110.4798         estimate D2E/DX2                !
 ! A101  A(55,31,56)           108.4569         estimate D2E/DX2                !
 ! A102  A(55,31,57)           108.4639         estimate D2E/DX2                !
 ! A103  A(56,31,57)           110.7701         estimate D2E/DX2                !
 ! A104  A(12,32,33)           115.1479         estimate D2E/DX2                !
 ! A105  A(12,32,34)           124.9861         estimate D2E/DX2                !
 ! A106  A(33,32,34)           119.862          estimate D2E/DX2                !
 ! A107  A(32,33,58)           104.9715         estimate D2E/DX2                !
 ! D1    D(6,1,2,3)             -2.4622         estimate D2E/DX2                !
 ! D2    D(6,1,2,17)           177.3132         estimate D2E/DX2                !
 ! D3    D(15,1,2,3)          -179.119          estimate D2E/DX2                !
 ! D4    D(15,1,2,17)            0.6563         estimate D2E/DX2                !
 ! D5    D(2,1,6,5)              1.9886         estimate D2E/DX2                !
 ! D6    D(2,1,6,16)          -177.5598         estimate D2E/DX2                !
 ! D7    D(15,1,6,5)           178.6561         estimate D2E/DX2                !
 ! D8    D(15,1,6,16)           -0.8922         estimate D2E/DX2                !
 ! D9    D(2,1,15,42)         -145.3665         estimate D2E/DX2                !
 ! D10   D(2,1,15,43)          -26.919          estimate D2E/DX2                !
 ! D11   D(2,1,15,44)           93.8086         estimate D2E/DX2                !
 ! D12   D(6,1,15,42)           38.0713         estimate D2E/DX2                !
 ! D13   D(6,1,15,43)          156.5188         estimate D2E/DX2                !
 ! D14   D(6,1,15,44)          -82.7536         estimate D2E/DX2                !
 ! D15   D(1,2,3,4)              0.8511         estimate D2E/DX2                !
 ! D16   D(1,2,3,35)          -179.7366         estimate D2E/DX2                !
 ! D17   D(17,2,3,4)          -178.9224         estimate D2E/DX2                !
 ! D18   D(17,2,3,35)            0.49           estimate D2E/DX2                !
 ! D19   D(1,2,17,46)         -173.2361         estimate D2E/DX2                !
 ! D20   D(3,2,17,46)            6.5431         estimate D2E/DX2                !
 ! D21   D(2,3,4,5)              1.2732         estimate D2E/DX2                !
 ! D22   D(2,3,4,7)           -179.5939         estimate D2E/DX2                !
 ! D23   D(35,3,4,5)          -178.1265         estimate D2E/DX2                !
 ! D24   D(35,3,4,7)             1.0065         estimate D2E/DX2                !
 ! D25   D(3,4,5,6)             -1.728          estimate D2E/DX2                !
 ! D26   D(3,4,5,10)           177.34           estimate D2E/DX2                !
 ! D27   D(7,4,5,6)            179.1162         estimate D2E/DX2                !
 ! D28   D(7,4,5,10)            -1.8158         estimate D2E/DX2                !
 ! D29   D(3,4,7,8)           -174.9956         estimate D2E/DX2                !
 ! D30   D(3,4,7,11)             5.0446         estimate D2E/DX2                !
 ! D31   D(5,4,7,8)              4.1268         estimate D2E/DX2                !
 ! D32   D(5,4,7,11)          -175.833          estimate D2E/DX2                !
 ! D33   D(4,5,6,1)              0.0948         estimate D2E/DX2                !
 ! D34   D(4,5,6,16)           179.6182         estimate D2E/DX2                !
 ! D35   D(10,5,6,1)          -178.9721         estimate D2E/DX2                !
 ! D36   D(10,5,6,16)            0.5514         estimate D2E/DX2                !
 ! D37   D(4,5,10,9)            -2.0241         estimate D2E/DX2                !
 ! D38   D(4,5,10,18)          178.8453         estimate D2E/DX2                !
 ! D39   D(6,5,10,9)           177.0498         estimate D2E/DX2                !
 ! D40   D(6,5,10,18)           -2.0808         estimate D2E/DX2                !
 ! D41   D(1,6,16,45)         -179.8471         estimate D2E/DX2                !
 ! D42   D(5,6,16,45)            0.6103         estimate D2E/DX2                !
 ! D43   D(4,7,8,9)             -2.6425         estimate D2E/DX2                !
 ! D44   D(4,7,8,14)           177.1063         estimate D2E/DX2                !
 ! D45   D(11,7,8,9)           177.3168         estimate D2E/DX2                !
 ! D46   D(11,7,8,14)           -2.9344         estimate D2E/DX2                !
 ! D47   D(4,7,11,12)          170.8007         estimate D2E/DX2                !
 ! D48   D(4,7,11,36)           47.6611         estimate D2E/DX2                !
 ! D49   D(4,7,11,37)          -67.9971         estimate D2E/DX2                !
 ! D50   D(8,7,11,12)           -9.1575         estimate D2E/DX2                !
 ! D51   D(8,7,11,36)         -132.2972         estimate D2E/DX2                !
 ! D52   D(8,7,11,37)          112.0446         estimate D2E/DX2                !
 ! D53   D(7,8,9,10)            -1.3613         estimate D2E/DX2                !
 ! D54   D(14,8,9,10)          178.8665         estimate D2E/DX2                !
 ! D55   D(7,8,14,13)          -14.8602         estimate D2E/DX2                !
 ! D56   D(7,8,14,40)         -135.9341         estimate D2E/DX2                !
 ! D57   D(7,8,14,41)          107.8543         estimate D2E/DX2                !
 ! D58   D(9,8,14,13)          164.9104         estimate D2E/DX2                !
 ! D59   D(9,8,14,40)           43.8365         estimate D2E/DX2                !
 ! D60   D(9,8,14,41)          -72.3751         estimate D2E/DX2                !
 ! D61   D(8,9,10,5)             3.6889         estimate D2E/DX2                !
 ! D62   D(8,9,10,18)         -177.1944         estimate D2E/DX2                !
 ! D63   D(7,11,12,13)          37.1036         estimate D2E/DX2                !
 ! D64   D(7,11,12,19)         152.207          estimate D2E/DX2                !
 ! D65   D(7,11,12,32)         -83.5705         estimate D2E/DX2                !
 ! D66   D(36,11,12,13)        160.9477         estimate D2E/DX2                !
 ! D67   D(36,11,12,19)        -83.949          estimate D2E/DX2                !
 ! D68   D(36,11,12,32)         40.2735         estimate D2E/DX2                !
 ! D69   D(37,11,12,13)        -83.0803         estimate D2E/DX2                !
 ! D70   D(37,11,12,19)         32.023          estimate D2E/DX2                !
 ! D71   D(37,11,12,32)        156.2455         estimate D2E/DX2                !
 ! D72   D(11,12,13,14)        -54.9321         estimate D2E/DX2                !
 ! D73   D(11,12,13,38)       -178.0469         estimate D2E/DX2                !
 ! D74   D(11,12,13,39)         66.7632         estimate D2E/DX2                !
 ! D75   D(19,12,13,14)       -174.0333         estimate D2E/DX2                !
 ! D76   D(19,12,13,38)         62.8519         estimate D2E/DX2                !
 ! D77   D(19,12,13,39)        -52.338          estimate D2E/DX2                !
 ! D78   D(32,12,13,14)         69.6807         estimate D2E/DX2                !
 ! D79   D(32,12,13,38)        -53.4341         estimate D2E/DX2                !
 ! D80   D(32,12,13,39)       -168.624          estimate D2E/DX2                !
 ! D81   D(11,12,19,20)         63.6213         estimate D2E/DX2                !
 ! D82   D(13,12,19,20)       -178.1964         estimate D2E/DX2                !
 ! D83   D(32,12,19,20)        -63.241          estimate D2E/DX2                !
 ! D84   D(11,12,32,33)         29.9059         estimate D2E/DX2                !
 ! D85   D(11,12,32,34)       -150.825          estimate D2E/DX2                !
 ! D86   D(13,12,32,33)        -91.9443         estimate D2E/DX2                !
 ! D87   D(13,12,32,34)         87.3248         estimate D2E/DX2                !
 ! D88   D(19,12,32,33)        154.9647         estimate D2E/DX2                !
 ! D89   D(19,12,32,34)        -25.7662         estimate D2E/DX2                !
 ! D90   D(12,13,14,8)          44.3664         estimate D2E/DX2                !
 ! D91   D(12,13,14,40)        166.0655         estimate D2E/DX2                !
 ! D92   D(12,13,14,41)        -77.6273         estimate D2E/DX2                !
 ! D93   D(38,13,14,8)         168.1218         estimate D2E/DX2                !
 ! D94   D(38,13,14,40)        -70.179          estimate D2E/DX2                !
 ! D95   D(38,13,14,41)         46.1281         estimate D2E/DX2                !
 ! D96   D(39,13,14,8)         -77.2266         estimate D2E/DX2                !
 ! D97   D(39,13,14,40)         44.4726         estimate D2E/DX2                !
 ! D98   D(39,13,14,41)        160.7797         estimate D2E/DX2                !
 ! D99   D(12,19,20,21)        139.9503         estimate D2E/DX2                !
 ! D100  D(12,19,20,25)       -100.5156         estimate D2E/DX2                !
 ! D101  D(12,19,20,47)         21.2416         estimate D2E/DX2                !
 ! D102  D(19,20,21,22)        175.2715         estimate D2E/DX2                !
 ! D103  D(19,20,21,26)        -65.0694         estimate D2E/DX2                !
 ! D104  D(19,20,21,48)         51.9103         estimate D2E/DX2                !
 ! D105  D(25,20,21,22)         56.2496         estimate D2E/DX2                !
 ! D106  D(25,20,21,26)        175.9086         estimate D2E/DX2                !
 ! D107  D(25,20,21,48)        -67.1116         estimate D2E/DX2                !
 ! D108  D(47,20,21,22)        -65.0421         estimate D2E/DX2                !
 ! D109  D(47,20,21,26)         54.6169         estimate D2E/DX2                !
 ! D110  D(47,20,21,48)        171.5966         estimate D2E/DX2                !
 ! D111  D(19,20,25,24)       -158.498          estimate D2E/DX2                !
 ! D112  D(19,20,25,51)         79.7076         estimate D2E/DX2                !
 ! D113  D(19,20,25,52)        -35.415          estimate D2E/DX2                !
 ! D114  D(21,20,25,24)        -40.8716         estimate D2E/DX2                !
 ! D115  D(21,20,25,51)       -162.666          estimate D2E/DX2                !
 ! D116  D(21,20,25,52)         82.2113         estimate D2E/DX2                !
 ! D117  D(47,20,25,24)         79.6282         estimate D2E/DX2                !
 ! D118  D(47,20,25,51)        -42.1662         estimate D2E/DX2                !
 ! D119  D(47,20,25,52)       -157.2889         estimate D2E/DX2                !
 ! D120  D(20,21,22,23)        -43.7878         estimate D2E/DX2                !
 ! D121  D(20,21,22,27)       -164.5942         estimate D2E/DX2                !
 ! D122  D(20,21,22,49)         78.7646         estimate D2E/DX2                !
 ! D123  D(26,21,22,23)       -166.0474         estimate D2E/DX2                !
 ! D124  D(26,21,22,27)         73.1462         estimate D2E/DX2                !
 ! D125  D(26,21,22,49)        -43.495          estimate D2E/DX2                !
 ! D126  D(48,21,22,23)         79.1858         estimate D2E/DX2                !
 ! D127  D(48,21,22,27)        -41.6207         estimate D2E/DX2                !
 ! D128  D(48,21,22,49)       -158.2619         estimate D2E/DX2                !
 ! D129  D(20,21,26,53)         29.9951         estimate D2E/DX2                !
 ! D130  D(22,21,26,53)        152.0779         estimate D2E/DX2                !
 ! D131  D(48,21,26,53)        -89.7044         estimate D2E/DX2                !
 ! D132  D(21,22,23,24)         15.1329         estimate D2E/DX2                !
 ! D133  D(21,22,23,50)       -165.5133         estimate D2E/DX2                !
 ! D134  D(27,22,23,24)        136.5879         estimate D2E/DX2                !
 ! D135  D(27,22,23,50)        -44.0583         estimate D2E/DX2                !
 ! D136  D(49,22,23,24)       -108.2395         estimate D2E/DX2                !
 ! D137  D(49,22,23,50)         71.1143         estimate D2E/DX2                !
 ! D138  D(21,22,27,54)        -49.3419         estimate D2E/DX2                !
 ! D139  D(23,22,27,54)       -173.7784         estimate D2E/DX2                !
 ! D140  D(49,22,27,54)         69.6214         estimate D2E/DX2                !
 ! D141  D(22,23,24,25)          0.9389         estimate D2E/DX2                !
 ! D142  D(22,23,24,28)        179.1212         estimate D2E/DX2                !
 ! D143  D(50,23,24,25)       -178.3793         estimate D2E/DX2                !
 ! D144  D(50,23,24,28)         -0.197          estimate D2E/DX2                !
 ! D145  D(23,24,25,20)         12.7024         estimate D2E/DX2                !
 ! D146  D(23,24,25,51)        133.9712         estimate D2E/DX2                !
 ! D147  D(23,24,25,52)       -110.7912         estimate D2E/DX2                !
 ! D148  D(28,24,25,20)       -165.6074         estimate D2E/DX2                !
 ! D149  D(28,24,25,51)        -44.3386         estimate D2E/DX2                !
 ! D150  D(28,24,25,52)         70.899          estimate D2E/DX2                !
 ! D151  D(23,24,28,29)          9.9288         estimate D2E/DX2                !
 ! D152  D(23,24,28,30)       -170.1039         estimate D2E/DX2                !
 ! D153  D(25,24,28,29)       -171.7686         estimate D2E/DX2                !
 ! D154  D(25,24,28,30)          8.1987         estimate D2E/DX2                !
 ! D155  D(24,28,29,31)        179.1967         estimate D2E/DX2                !
 ! D156  D(30,28,29,31)         -0.7693         estimate D2E/DX2                !
 ! D157  D(28,29,31,55)       -179.546          estimate D2E/DX2                !
 ! D158  D(28,29,31,56)        -61.0163         estimate D2E/DX2                !
 ! D159  D(28,29,31,57)         61.9407         estimate D2E/DX2                !
 ! D160  D(12,32,33,58)        178.2283         estimate D2E/DX2                !
 ! D161  D(34,32,33,58)         -1.0812         estimate D2E/DX2                !
 --------------------------------------------------------------------------------
 Trust Radius=3.00D-01 FncErr=1.00D-07 GrdErr=1.00D-06
 Number of steps in this run=    340 maximum allowed number of steps=    348.
 GradGradGradGradGradGradGradGradGradGradGradGradGradGradGradGradGradGrad

 Stoichiometry    C23H24O11
 Framework group  C1[X(C23H24O11)]
 Deg. of freedom   168
 Full point group                 C1      NOp   1
 Largest Abelian subgroup         C1      NOp   1
 Largest concise Abelian subgroup C1      NOp   1
                         Standard orientation:                         
 ---------------------------------------------------------------------
 Center     Atomic      Atomic             Coordinates (Angstroms)
 Number     Number       Type             X           Y           Z
 ---------------------------------------------------------------------
      1          6           0       -4.523742    2.419375    0.492665
      2          6           0       -3.139579    2.605518    0.489846
      3          6           0       -2.263513    1.549585    0.225265
      4          6           0       -2.752939    0.265386   -0.064908
      5          6           0       -4.141681    0.077307   -0.108809
      6          6           0       -5.017101    1.147384    0.169193
      7          6           0       -1.855999   -0.871609   -0.339768
      8          6           0       -2.412321   -2.036165   -0.707567
      9          8           0       -3.803824   -2.230206   -0.788133
     10          6           0       -4.691260   -1.248834   -0.469670
     11          6           0       -0.357949   -0.714888   -0.206075
     12          6           0        0.476892   -2.011596   -0.299811
     13          6           0       -0.146482   -2.953980   -1.345912
     14          6           0       -1.619512   -3.255823   -1.078083
     15          6           0       -5.461602    3.564772    0.758964
     16          8           0       -6.383947    1.005305    0.129049
     17          8           0       -2.640434    3.852009    0.748070
     18          8           0       -5.904837   -1.435945   -0.492169
     19          8           0        1.807819   -1.736914   -0.801685
     20          6           0        2.665570   -0.895988    0.000408
     21          6           0        4.082198   -1.498730   -0.063633
     22          6           0        5.102504   -0.607912    0.667007
     23          6           0        4.952262    0.849105    0.380096
     24          6           0        3.854485    1.374270   -0.192449
     25          6           0        2.667714    0.531941   -0.576021
     26          8           0        4.133485   -2.796783    0.553774
     27          8           0        6.420233   -0.997580    0.286481
     28          6           0        3.706000    2.834369   -0.457717
     29          8           0        4.867724    3.501104   -0.257415
     30          8           0        2.647156    3.333824   -0.812607
     31          6           0        4.789488    4.903374   -0.514433
     32          6           0        0.579756   -2.793047    1.026287
     33          8           0       -0.475064   -2.663319    1.848947
     34          8           0        1.521456   -3.503799    1.350536
     35          1           0       -1.195748    1.745544    0.239310
     36          1           0       -0.122718   -0.222878    0.746294
     37          1           0       -0.040052   -0.036212   -1.007942
     38          1           0        0.415241   -3.895942   -1.400352
     39          1           0       -0.045552   -2.500330   -2.342322
     40          1           0       -2.048981   -3.713356   -1.977620
     41          1           0       -1.712833   -3.996120   -0.274686
     42          1           0       -6.347634    3.230932    1.309109
     43          1           0       -4.992810    4.337992    1.376040
     44          1           0       -5.777452    4.015353   -0.187054
     45          1           0       -6.608223    0.077028   -0.104047
     46          1           0       -1.678956    3.859012    0.609037
     47          1           0        2.328019   -0.885703    1.044037
     48          1           0        4.379204   -1.656517   -1.108227
     49          1           0        5.032440   -0.761995    1.750669
     50          1           0        5.790843    1.475917    0.674917
     51          1           0        1.753875    1.032701   -0.238272
     52          1           0        2.603627    0.487400   -1.671237
     53          1           0        3.253441   -3.215116    0.446776
     54          1           0        6.438332   -1.968548    0.395780
     55          1           0        5.776249    5.337242   -0.330651
     56          1           0        4.519040    5.087552   -1.558918
     57          1           0        4.071082    5.377157    0.161862
     58          1           0       -0.267709   -3.235555    2.619465
 ---------------------------------------------------------------------
 Rotational constants (GHZ):      0.1684197      0.0712193      0.0527911
 Standard basis: 6-31G(d) (6D, 7F)
 There are   558 symmetry adapted basis functions of A   symmetry.
 Integral buffers will be    131072 words long.
 Raffenetti 2 integral format.
 Two-electron integral symmetry is turned on.
   558 basis functions,  1048 primitive gaussians,   558 cartesian basis functions
   125 alpha electrons      125 beta electrons
       nuclear repulsion energy      3680.4790408814 Hartrees.
 NAtoms=   58 NActive=   58 NUniq=   58 SFac= 1.00D+00 NAtFMM=   50 NAOKFM=T Big=T
 One-electron integrals computed using PRISM.
 NBasis=   558 RedAO= T  NBF=   558
 NBsUse=   558 1.00D-06 NBFU=   558
 Harris functional with IExCor=  402 diagonalized for initial guess.
 ExpMin= 1.61D-01 ExpMax= 5.48D+03 ExpMxC= 8.25D+02 IAcc=1 IRadAn=         1 AccDes= 0.00D+00
 HarFok:  IExCor=  402 AccDes= 0.00D+00 IRadAn=         1 IDoV= 1
 ScaDFX=  1.000000  1.000000  1.000000  1.000000
 FoFCou: FMM=F IPFlag=           0 FMFlag=      100000 FMFlg1=        2001
         NFxFlg=           0 DoJE=T BraDBF=F KetDBF=T FulRan=T
         Omega=  0.000000  0.000000  1.000000  0.000000  0.000000 ICntrl=     500 IOpCl=  0
         NMat0=    1 NMatS0=    1 NMatT0=    0 NMatD0=    1 NMtDS0=    0 NMtDT0=    0
         I1Cent=           4 NGrid=           0.
 Petite list used in FoFCou.
 Initial guess orbital symmetries:
       Occupied  (A) (A) (A) (A) (A) (A) (A) (A) (A) (A) (A) (A)
                 (A) (A) (A) (A) (A) (A) (A) (A) (A) (A) (A) (A)
                 (A) (A) (A) (A) (A) (A) (A) (A) (A) (A) (A) (A)
                 (A) (A) (A) (A) (A) (A) (A) (A) (A) (A) (A) (A)
                 (A) (A) (A) (A) (A) (A) (A) (A) (A) (A) (A) (A)
                 (A) (A) (A) (A) (A) (A) (A) (A) (A) (A) (A) (A)
                 (A) (A) (A) (A) (A) (A) (A) (A) (A) (A) (A) (A)
                 (A) (A) (A) (A) (A) (A) (A) (A) (A) (A) (A) (A)
                 (A) (A) (A) (A) (A) (A) (A) (A) (A) (A) (A) (A)
                 (A) (A) (A) (A) (A) (A) (A) (A) (A) (A) (A) (A)
                 (A) (A) (A) (A) (A)
       Virtual   (A) (A) (A) (A) (A) (A) (A) (A) (A) (A) (A) (A)
                 (A) (A) (A) (A) (A) (A) (A) (A) (A) (A) (A) (A)
                 (A) (A) (A) (A) (A) (A) (A) (A) (A) (A) (A) (A)
                 (A) (A) (A) (A) (A) (A) (A) (A) (A) (A) (A) (A)
                 (A) (A) (A) (A) (A) (A) (A) (A) (A) (A) (A) (A)
                 (A) (A) (A) (A) (A) (A) (A) (A) (A) (A) (A) (A)
                 (A) (A) (A) (A) (A) (A) (A) (A) (A) (A) (A) (A)
                 (A) (A) (A) (A) (A) (A) (A) (A) (A) (A) (A) (A)
                 (A) (A) (A) (A) (A) (A) (A) (A) (A) (A) (A) (A)
                 (A) (A) (A) (A) (A) (A) (A) (A) (A) (A) (A) (A)
                 (A) (A) (A) (A) (A) (A) (A) (A) (A) (A) (A) (A)
                 (A) (A) (A) (A) (A) (A) (A) (A) (A) (A) (A) (A)
                 (A) (A) (A) (A) (A) (A) (A) (A) (A) (A) (A) (A)
                 (A) (A) (A) (A) (A) (A) (A) (A) (A) (A) (A) (A)
                 (A) (A) (A) (A) (A) (A) (A) (A) (A) (A) (A) (A)
                 (A) (A) (A) (A) (A) (A) (A) (A) (A) (A) (A) (A)
                 (A) (A) (A) (A) (A) (A) (A) (A) (A) (A) (A) (A)
                 (A) (A) (A) (A) (A) (A) (A) (A) (A) (A) (A) (A)
                 (A) (A) (A) (A) (A) (A) (A) (A) (A) (A) (A) (A)
                 (A) (A) (A) (A) (A) (A) (A) (A) (A) (A) (A) (A)
                 (A) (A) (A) (A) (A) (A) (A) (A) (A) (A) (A) (A)
                 (A) (A) (A) (A) (A) (A) (A) (A) (A) (A) (A) (A)
                 (A) (A) (A) (A) (A) (A) (A) (A) (A) (A) (A) (A)
                 (A) (A) (A) (A) (A) (A) (A) (A) (A) (A) (A) (A)
                 (A) (A) (A) (A) (A) (A) (A) (A) (A) (A) (A) (A)
                 (A) (A) (A) (A) (A) (A) (A) (A) (A) (A) (A) (A)
                 (A) (A) (A) (A) (A) (A) (A) (A) (A) (A) (A) (A)
                 (A) (A) (A) (A) (A) (A) (A) (A) (A) (A) (A) (A)
                 (A) (A) (A) (A) (A) (A) (A) (A) (A) (A) (A) (A)
                 (A) (A) (A) (A) (A) (A) (A) (A) (A) (A) (A) (A)
                 (A) (A) (A) (A) (A) (A) (A) (A) (A) (A) (A) (A)
                 (A) (A) (A) (A) (A) (A) (A) (A) (A) (A) (A) (A)
                 (A) (A) (A) (A) (A) (A) (A) (A) (A) (A) (A) (A)
                 (A) (A) (A) (A) (A) (A) (A) (A) (A) (A) (A) (A)
                 (A) (A) (A) (A) (A) (A) (A) (A) (A) (A) (A) (A)
                 (A) (A) (A) (A) (A) (A) (A) (A) (A) (A) (A) (A)
                 (A)
 The electronic state of the initial guess is 1-A.
 Requested convergence on RMS density matrix=1.00D-08 within 128 cycles.
 Requested convergence on MAX density matrix=1.00D-06.
 Requested convergence on             energy=1.00D-06.
 No special actions if energy rises.
 Integral accuracy reduced to 1.0D-05 until final iterations.
 Initial convergence to 1.0D-05 achieved.  Increase integral accuracy.
 SCF Done:  E(RB3LYP) =  -1718.35815638     A.U. after   15 cycles
             Convg  =    0.4023D-08             -V/T =  2.0091

 **********************************************************************

            Population analysis using the SCF density.

 **********************************************************************

 Orbital symmetries:
       Occupied  (A) (A) (A) (A) (A) (A) (A) (A) (A) (A) (A) (A)
                 (A) (A) (A) (A) (A) (A) (A) (A) (A) (A) (A) (A)
                 (A) (A) (A) (A) (A) (A) (A) (A) (A) (A) (A) (A)
                 (A) (A) (A) (A) (A) (A) (A) (A) (A) (A) (A) (A)
                 (A) (A) (A) (A) (A) (A) (A) (A) (A) (A) (A) (A)
                 (A) (A) (A) (A) (A) (A) (A) (A) (A) (A) (A) (A)
                 (A) (A) (A) (A) (A) (A) (A) (A) (A) (A) (A) (A)
                 (A) (A) (A) (A) (A) (A) (A) (A) (A) (A) (A) (A)
                 (A) (A) (A) (A) (A) (A) (A) (A) (A) (A) (A) (A)
                 (A) (A) (A) (A) (A) (A) (A) (A) (A) (A) (A) (A)
                 (A) (A) (A) (A) (A)
       Virtual   (A) (A) (A) (A) (A) (A) (A) (A) (A) (A) (A) (A)
                 (A) (A) (A) (A) (A) (A) (A) (A) (A) (A) (A) (A)
                 (A) (A) (A) (A) (A) (A) (A) (A) (A) (A) (A) (A)
                 (A) (A) (A) (A) (A) (A) (A) (A) (A) (A) (A) (A)
                 (A) (A) (A) (A) (A) (A) (A) (A) (A) (A) (A) (A)
                 (A) (A) (A) (A) (A) (A) (A) (A) (A) (A) (A) (A)
                 (A) (A) (A) (A) (A) (A) (A) (A) (A) (A) (A) (A)
                 (A) (A) (A) (A) (A) (A) (A) (A) (A) (A) (A) (A)
                 (A) (A) (A) (A) (A) (A) (A) (A) (A) (A) (A) (A)
                 (A) (A) (A) (A) (A) (A) (A) (A) (A) (A) (A) (A)
                 (A) (A) (A) (A) (A) (A) (A) (A) (A) (A) (A) (A)
                 (A) (A) (A) (A) (A) (A) (A) (A) (A) (A) (A) (A)
                 (A) (A) (A) (A) (A) (A) (A) (A) (A) (A) (A) (A)
                 (A) (A) (A) (A) (A) (A) (A) (A) (A) (A) (A) (A)
                 (A) (A) (A) (A) (A) (A) (A) (A) (A) (A) (A) (A)
                 (A) (A) (A) (A) (A) (A) (A) (A) (A) (A) (A) (A)
                 (A) (A) (A) (A) (A) (A) (A) (A) (A) (A) (A) (A)
                 (A) (A) (A) (A) (A) (A) (A) (A) (A) (A) (A) (A)
                 (A) (A) (A) (A) (A) (A) (A) (A) (A) (A) (A) (A)
                 (A) (A) (A) (A) (A) (A) (A) (A) (A) (A) (A) (A)
                 (A) (A) (A) (A) (A) (A) (A) (A) (A) (A) (A) (A)
                 (A) (A) (A) (A) (A) (A) (A) (A) (A) (A) (A) (A)
                 (A) (A) (A) (A) (A) (A) (A) (A) (A) (A) (A) (A)
                 (A) (A) (A) (A) (A) (A) (A) (A) (A) (A) (A) (A)
                 (A) (A) (A) (A) (A) (A) (A) (A) (A) (A) (A) (A)
                 (A) (A) (A) (A) (A) (A) (A) (A) (A) (A) (A) (A)
                 (A) (A) (A) (A) (A) (A) (A) (A) (A) (A) (A) (A)
                 (A) (A) (A) (A) (A) (A) (A) (A) (A) (A) (A) (A)
                 (A) (A) (A) (A) (A) (A) (A) (A) (A) (A) (A) (A)
                 (A) (A) (A) (A) (A) (A) (A) (A) (A) (A) (A) (A)
                 (A) (A) (A) (A) (A) (A) (A) (A) (A) (A) (A) (A)
                 (A) (A) (A) (A) (A) (A) (A) (A) (A) (A) (A) (A)
                 (A) (A) (A) (A) (A) (A) (A) (A) (A) (A) (A) (A)
                 (A) (A) (A) (A) (A) (A) (A) (A) (A) (A) (A) (A)
                 (A) (A) (A) (A) (A) (A) (A) (A) (A) (A) (A) (A)
                 (A) (A) (A) (A) (A) (A) (A) (A) (A) (A) (A) (A)
                 (A)
 The electronic state is 1-A.
 Alpha  occ. eigenvalues --  -19.23426 -19.22685 -19.20423 -19.19232 -19.18084
 Alpha  occ. eigenvalues --  -19.17695 -19.16390 -19.14717 -19.14473 -19.14251
 Alpha  occ. eigenvalues --  -19.13225 -10.35592 -10.33291 -10.32590 -10.29522
 Alpha  occ. eigenvalues --  -10.27605 -10.26574 -10.26420 -10.25910 -10.24836
 Alpha  occ. eigenvalues --  -10.24469 -10.23892 -10.22492 -10.22477 -10.22163
 Alpha  occ. eigenvalues --  -10.22121 -10.22096 -10.21630 -10.21012 -10.20645
 Alpha  occ. eigenvalues --  -10.20251 -10.19800 -10.19684 -10.17556  -1.14541
 Alpha  occ. eigenvalues --   -1.12198  -1.11017  -1.07216  -1.06153  -1.05204
 Alpha  occ. eigenvalues --   -1.04162  -1.02633  -1.02455  -1.02337  -0.99692
 Alpha  occ. eigenvalues --   -0.88323  -0.86440  -0.84688  -0.81021  -0.79295
 Alpha  occ. eigenvalues --   -0.77366  -0.76158  -0.75443  -0.74653  -0.72268
 Alpha  occ. eigenvalues --   -0.70312  -0.69544  -0.66695  -0.66076  -0.64856
 Alpha  occ. eigenvalues --   -0.63932  -0.62420  -0.61363  -0.59655  -0.58737
 Alpha  occ. eigenvalues --   -0.57092  -0.55231  -0.54918  -0.54661  -0.53549
 Alpha  occ. eigenvalues --   -0.52910  -0.51607  -0.51228  -0.50881  -0.50029
 Alpha  occ. eigenvalues --   -0.49162  -0.48807  -0.48499  -0.48011  -0.47829
 Alpha  occ. eigenvalues --   -0.47318  -0.46819  -0.46013  -0.45529  -0.44941
 Alpha  occ. eigenvalues --   -0.44566  -0.44324  -0.43878  -0.43439  -0.43323
 Alpha  occ. eigenvalues --   -0.42940  -0.42532  -0.41732  -0.41255  -0.40566
 Alpha  occ. eigenvalues --   -0.40354  -0.40026  -0.39694  -0.39519  -0.38812
 Alpha  occ. eigenvalues --   -0.38599  -0.38068  -0.37669  -0.37286  -0.36984
 Alpha  occ. eigenvalues --   -0.36455  -0.35404  -0.35210  -0.35012  -0.34616
 Alpha  occ. eigenvalues --   -0.34313  -0.33849  -0.33520  -0.32906  -0.31246
 Alpha  occ. eigenvalues --   -0.30657  -0.29337  -0.28357  -0.28137  -0.27875
 Alpha  occ. eigenvalues --   -0.26636  -0.26118  -0.25778  -0.23498  -0.21895
 Alpha virt. eigenvalues --   -0.05007  -0.04282  -0.03690  -0.02898   0.03418
 Alpha virt. eigenvalues --    0.04188   0.05260   0.06035   0.06502   0.06952
 Alpha virt. eigenvalues --    0.07514   0.08679   0.09517   0.10442   0.10498
 Alpha virt. eigenvalues --    0.11053   0.11503   0.11927   0.12293   0.12841
 Alpha virt. eigenvalues --    0.13469   0.14045   0.14667   0.14782   0.15194
 Alpha virt. eigenvalues --    0.15354   0.16049   0.16579   0.16612   0.17232
 Alpha virt. eigenvalues --    0.17442   0.17589   0.17959   0.18612   0.18836
 Alpha virt. eigenvalues --    0.18932   0.19762   0.20242   0.21072   0.21659
 Alpha virt. eigenvalues --    0.21912   0.22426   0.22819   0.23532   0.24021
 Alpha virt. eigenvalues --    0.24554   0.25218   0.26529   0.26927   0.27463
 Alpha virt. eigenvalues --    0.27515   0.29343   0.29870   0.32161   0.32273
 Alpha virt. eigenvalues --    0.33000   0.33451   0.34364   0.35968   0.37611
 Alpha virt. eigenvalues --    0.39048   0.40056   0.40583   0.41639   0.42910
 Alpha virt. eigenvalues --    0.43399   0.45515   0.46824   0.47468   0.49239
 Alpha virt. eigenvalues --    0.49963   0.50152   0.51104   0.51322   0.51913
 Alpha virt. eigenvalues --    0.52311   0.52818   0.52941   0.53618   0.53808
 Alpha virt. eigenvalues --    0.54893   0.55344   0.55630   0.55848   0.56214
 Alpha virt. eigenvalues --    0.56921   0.57438   0.57855   0.58225   0.58729
 Alpha virt. eigenvalues --    0.58980   0.59194   0.60065   0.60979   0.61584
 Alpha virt. eigenvalues --    0.61769   0.61976   0.62566   0.63795   0.64172
 Alpha virt. eigenvalues --    0.64471   0.64699   0.64965   0.65526   0.66406
 Alpha virt. eigenvalues --    0.67431   0.67893   0.68552   0.68939   0.70479
 Alpha virt. eigenvalues --    0.70854   0.71126   0.71719   0.72218   0.72697
 Alpha virt. eigenvalues --    0.73442   0.73925   0.74133   0.74482   0.75291
 Alpha virt. eigenvalues --    0.75589   0.76219   0.76924   0.77787   0.78146
 Alpha virt. eigenvalues --    0.78454   0.79140   0.81011   0.81338   0.82204
 Alpha virt. eigenvalues --    0.82543   0.83114   0.83488   0.83865   0.84414
 Alpha virt. eigenvalues --    0.85067   0.85535   0.86171   0.86320   0.87369
 Alpha virt. eigenvalues --    0.88269   0.88533   0.88668   0.89308   0.89992
 Alpha virt. eigenvalues --    0.90279   0.90840   0.91340   0.91916   0.92309
 Alpha virt. eigenvalues --    0.92472   0.93111   0.93515   0.93779   0.95096
 Alpha virt. eigenvalues --    0.95314   0.95906   0.96162   0.96591   0.97248
 Alpha virt. eigenvalues --    0.97801   0.98078   0.98620   0.99133   0.99977
 Alpha virt. eigenvalues --    1.00477   1.01117   1.01432   1.02496   1.03164
 Alpha virt. eigenvalues --    1.04104   1.04314   1.05407   1.06058   1.06742
 Alpha virt. eigenvalues --    1.07259   1.08406   1.09415   1.09653   1.11292
 Alpha virt. eigenvalues --    1.11543   1.13095   1.13911   1.15025   1.15476
 Alpha virt. eigenvalues --    1.15963   1.17300   1.17892   1.20128   1.20807
 Alpha virt. eigenvalues --    1.21684   1.22274   1.22975   1.23338   1.24061
 Alpha virt. eigenvalues --    1.24693   1.26675   1.26961   1.28634   1.30247
 Alpha virt. eigenvalues --    1.30402   1.31279   1.32110   1.32432   1.33996
 Alpha virt. eigenvalues --    1.34895   1.35150   1.35374   1.35834   1.36959
 Alpha virt. eigenvalues --    1.37604   1.38441   1.38717   1.39166   1.39782
 Alpha virt. eigenvalues --    1.41046   1.41839   1.42850   1.43545   1.44105
 Alpha virt. eigenvalues --    1.44896   1.45592   1.47544   1.48537   1.50134
 Alpha virt. eigenvalues --    1.50442   1.53064   1.53288   1.54502   1.57208
 Alpha virt. eigenvalues --    1.58593   1.60492   1.61294   1.62793   1.63035
 Alpha virt. eigenvalues --    1.64745   1.65474   1.66199   1.67105   1.68435
 Alpha virt. eigenvalues --    1.69629   1.70022   1.70865   1.71211   1.71726
 Alpha virt. eigenvalues --    1.72178   1.72695   1.72929   1.73531   1.74151
 Alpha virt. eigenvalues --    1.74913   1.75366   1.75748   1.76478   1.77678
 Alpha virt. eigenvalues --    1.78261   1.78347   1.79544   1.79697   1.79885
 Alpha virt. eigenvalues --    1.81401   1.81711   1.82057   1.83480   1.83638
 Alpha virt. eigenvalues --    1.83766   1.84933   1.85394   1.85811   1.86579
 Alpha virt. eigenvalues --    1.86905   1.87455   1.87711   1.88011   1.89403
 Alpha virt. eigenvalues --    1.90307   1.90896   1.91294   1.91796   1.92571
 Alpha virt. eigenvalues --    1.93230   1.93639   1.94803   1.95135   1.95772
 Alpha virt. eigenvalues --    1.96952   1.97381   1.97976   1.98940   1.99467
 Alpha virt. eigenvalues --    2.00143   2.00933   2.01698   2.02170   2.03127
 Alpha virt. eigenvalues --    2.03381   2.03869   2.05349   2.05605   2.06792
 Alpha virt. eigenvalues --    2.07957   2.09114   2.09490   2.09625   2.10622
 Alpha virt. eigenvalues --    2.12668   2.12740   2.13976   2.14478   2.15192
 Alpha virt. eigenvalues --    2.18025   2.19010   2.21055   2.22007   2.23604
 Alpha virt. eigenvalues --    2.24615   2.25263   2.25591   2.26050   2.26831
 Alpha virt. eigenvalues --    2.27607   2.28045   2.28925   2.29353   2.30481
 Alpha virt. eigenvalues --    2.31413   2.31700   2.32582   2.33216   2.33736
 Alpha virt. eigenvalues --    2.34716   2.36079   2.36306   2.36922   2.38727
 Alpha virt. eigenvalues --    2.39379   2.41231   2.41797   2.42726   2.42794
 Alpha virt. eigenvalues --    2.43843   2.45132   2.45712   2.46483   2.46626
 Alpha virt. eigenvalues --    2.48952   2.49910   2.51842   2.52164   2.52968
 Alpha virt. eigenvalues --    2.53613   2.54175   2.55112   2.55372   2.57999
 Alpha virt. eigenvalues --    2.58393   2.59716   2.61585   2.62903   2.64253
 Alpha virt. eigenvalues --    2.65821   2.66258   2.67165   2.68002   2.69890
 Alpha virt. eigenvalues --    2.70311   2.70699   2.71784   2.74280   2.75234
 Alpha virt. eigenvalues --    2.75907   2.76490   2.77098   2.78539   2.80063
 Alpha virt. eigenvalues --    2.82012   2.84339   2.86022   2.86622   2.89008
 Alpha virt. eigenvalues --    2.91161   2.93937   2.94760   2.96460   2.96750
 Alpha virt. eigenvalues --    2.99403   3.01043   3.01675   3.03907   3.05392
 Alpha virt. eigenvalues --    3.08393   3.09969   3.12055   3.15696   3.18250
 Alpha virt. eigenvalues --    3.21491   3.22685   3.41056   3.49606   3.78023
 Alpha virt. eigenvalues --    3.87091   3.95206   3.95533   3.97307   3.99003
 Alpha virt. eigenvalues --    4.05064   4.07448   4.08892   4.13866   4.18188
 Alpha virt. eigenvalues --    4.19320   4.21159   4.22084   4.23587   4.24440
 Alpha virt. eigenvalues --    4.25137   4.32810   4.33904   4.34119   4.35554
 Alpha virt. eigenvalues --    4.40010   4.42677   4.48208   4.49838   4.52682
 Alpha virt. eigenvalues --    4.54212   4.56914   4.58041   4.63878   4.71384
 Alpha virt. eigenvalues --    4.73583   4.79052   4.87749
          Condensed to atoms (all electrons):
 Mulliken atomic charges:
              1
     1  C    0.092545
     2  C    0.332017
     3  C   -0.309732
     4  C    0.120495
     5  C   -0.063104
     6  C    0.232601
     7  C    0.085409
     8  C    0.286333
     9  O   -0.515617
    10  C    0.634671
    11  C   -0.388691
    12  C    0.266621
    13  C   -0.310827
    14  C   -0.362867
    15  C   -0.509942
    16  O   -0.664666
    17  O   -0.645582
    18  O   -0.532918
    19  O   -0.544366
    20  C    0.087656
    21  C    0.117017
    22  C    0.107287
    23  C   -0.143128
    24  C    0.049317
    25  C   -0.352183
    26  O   -0.693350
    27  O   -0.644046
    28  C    0.608742
    29  O   -0.455390
    30  O   -0.500391
    31  C   -0.221155
    32  C    0.588848
    33  O   -0.553899
    34  O   -0.480870
    35  H    0.125332
    36  H    0.168427
    37  H    0.193014
    38  H    0.173736
    39  H    0.177336
    40  H    0.181747
    41  H    0.175559
    42  H    0.174961
    43  H    0.168153
    44  H    0.169721
    45  H    0.449122
    46  H    0.419108
    47  H    0.136865
    48  H    0.141776
    49  H    0.144926
    50  H    0.175181
    51  H    0.163760
    52  H    0.175231
    53  H    0.429812
    54  H    0.408700
    55  H    0.168441
    56  H    0.171878
    57  H    0.167753
    58  H    0.422631
 Sum of Mulliken atomic charges =   0.00000
 Mulliken charges with hydrogens summed into heavy atoms:
              1
     1  C    0.092545
     2  C    0.332017
     3  C   -0.184400
     4  C    0.120495
     5  C   -0.063104
     6  C    0.232601
     7  C    0.085409
     8  C    0.286333
     9  O   -0.515617
    10  C    0.634671
    11  C   -0.027251
    12  C    0.266621
    13  C    0.040245
    14  C   -0.005561
    15  C    0.002894
    16  O   -0.215544
    17  O   -0.226475
    18  O   -0.532918
    19  O   -0.544366
    20  C    0.224521
    21  C    0.258793
    22  C    0.252213
    23  C    0.032053
    24  C    0.049317
    25  C   -0.013192
    26  O   -0.263538
    27  O   -0.235346
    28  C    0.608742
    29  O   -0.455390
    30  O   -0.500391
    31  C    0.286917
    32  C    0.588848
    33  O   -0.131268
    34  O   -0.480870
 Sum of Mulliken charges with hydrogens summed into heavy atoms =   0.00000
 Electronic spatial extent (au):  <R**2>=          19144.0583
 Charge=              0.0000 electrons
 Dipole moment (field-independent basis, Debye):
    X=              2.7151    Y=              0.6690    Z=              1.0172  Tot=              2.9756
 Quadrupole moment (field-independent basis, Debye-Ang):
   XX=           -241.3105   YY=           -182.0092   ZZ=           -187.4543
   XY=             15.2865   XZ=             -1.1925   YZ=              0.1231
 Traceless Quadrupole moment (field-independent basis, Debye-Ang):
   XX=            -37.7192   YY=             21.5821   ZZ=             16.1370
   XY=             15.2865   XZ=             -1.1925   YZ=              0.1231
 Octapole moment (field-independent basis, Debye-Ang**2):
  XXX=            150.1167  YYY=             34.1761  ZZZ=             20.1174  XYY=             74.8404
  XXY=            102.4155  XXZ=             12.1575  XZZ=              9.6394  YZZ=            -27.3256
  YYZ=              2.2998  XYZ=             15.1858
 Hexadecapole moment (field-independent basis, Debye-Ang**3):
 XXXX=         -18557.2843 YYYY=          -6345.7684 ZZZZ=           -738.4540 XXXY=            148.2277
 XXXZ=            -58.5350 YYYX=            545.6567 YYYZ=            -52.7831 ZZZX=              6.6258
 ZZZY=            -99.5072 XXYY=          -3706.9233 XXZZ=          -2890.0051 YYZZ=          -1194.6921
 XXYZ=            -63.2573 YYXZ=            -75.8856 ZZXY=             49.3325
 N-N= 3.680479040881D+03 E-N=-1.137390138744D+04  KE= 1.702842306693D+03
 Calling FoFJK, ICntrl=      2127 FMM=T ISym2X=0 I1Cent= 0 IOpClX= 0 NMat=1 NMatS=1 NMatT=0.
 ***** Axes restored to original set *****
 -------------------------------------------------------------------
 Center     Atomic                   Forces (Hartrees/Bohr)
 Number     Number              X              Y              Z
 -------------------------------------------------------------------
      1        6           0.006649704   -0.003841493    0.001957724
      2        6          -0.007472377    0.007664994    0.002376692
      3        6          -0.007016572    0.001742754   -0.005857577
      4        6          -0.001979426    0.017499952    0.014375994
      5        6          -0.017791230   -0.006905797   -0.020105656
      6        6           0.012139122   -0.020392880   -0.008375471
      7        6           0.014605580   -0.008067754   -0.002185086
      8        6          -0.000302960   -0.009222681   -0.004167532
      9        8          -0.009954145    0.009062275   -0.000203537
     10        6           0.029337375    0.005278674    0.026023470
     11        6           0.004136008   -0.001534106    0.001269571
     12        6          -0.011868673   -0.000235783    0.010675823
     13        6          -0.007855228   -0.003541033    0.000693147
     14        6           0.002998494   -0.006167121   -0.007129736
     15        6           0.006164273    0.003171091   -0.003181832
     16        8           0.001236059    0.017419319    0.015865802
     17        8           0.003324910   -0.005680390   -0.001868929
     18        8          -0.021090551    0.001768909   -0.013745359
     19        8           0.011370118   -0.002493873   -0.015323848
     20        6          -0.011077044    0.003177775    0.012497239
     21        6           0.005789047   -0.002106763   -0.022593788
     22        6          -0.011818203    0.001437587   -0.002144314
     23        6           0.000913106   -0.004507992    0.005579979
     24        6           0.000809946    0.007457228   -0.004019139
     25        6           0.005208745   -0.005799088   -0.002618610
     26        8           0.004460082   -0.000233588    0.005944300
     27        8          -0.006770771    0.002890153   -0.001570337
     28        6          -0.002413189   -0.001806568   -0.010479075
     29        8           0.003010509   -0.007565141    0.001913483
     30        8          -0.002767435    0.012346327    0.005854682
     31        6           0.004195814    0.002230156    0.009504458
     32        6          -0.003012377    0.017062557   -0.005522913
     33        8           0.001433698   -0.003130084    0.000203971
     34        8          -0.000272250   -0.012248440    0.007699510
     35        1          -0.000550855    0.000740220   -0.000375123
     36        1           0.001542639   -0.002764229    0.001616812
     37        1          -0.002756219    0.004676625   -0.001342253
     38        1           0.003109496    0.002130998    0.000932126
     39        1           0.005104078    0.003844442    0.002010302
     40        1           0.001535593   -0.000707959   -0.001801088
     41        1          -0.000166406   -0.001445019   -0.002760797
     42        1          -0.003934853   -0.003469811    0.000433828
     43        1          -0.004088192    0.000133398    0.002564518
     44        1           0.002949344   -0.002496452    0.000629047
     45        1          -0.005967536    0.005963657   -0.000194869
     46        1          -0.000098562   -0.001043857   -0.002870416
     47        1          -0.000639159    0.001337849   -0.000368129
     48        1           0.004738106   -0.001702401    0.011351637
     49        1           0.005571543   -0.005386863   -0.006381971
     50        1          -0.001082458   -0.001913971    0.000394186
     51        1          -0.001180141   -0.000622979    0.004730739
     52        1          -0.000639662   -0.000946074   -0.002677924
     53        1           0.000106278    0.004532514    0.002342107
     54        1           0.002517327    0.001186548    0.003998465
     55        1          -0.002790258    0.001566662   -0.004802403
     56        1           0.002809166   -0.001714292   -0.001708481
     57        1          -0.001257022   -0.003450775    0.000600932
     58        1           0.000847592   -0.003177405    0.002335650
 -------------------------------------------------------------------
 Cartesian Forces:  Max     0.029337375 RMS     0.007375036

 GradGradGradGradGradGradGradGradGradGradGradGradGradGradGradGradGradGrad
 Berny optimization.
 Internal  Forces:  Max     0.028720610 RMS     0.004420058
 Search for a local minimum.
 Step number   1 out of a maximum of  340
 All quantities printed in internal units (Hartrees-Bohrs-Radians)
 Mixed Optimization -- RFO/linear search
 Second derivative matrix not updated -- first step.
 ITU=  0
     Eigenvalues ---    0.00230   0.00439   0.00485   0.00526   0.00581
     Eigenvalues ---    0.00711   0.00736   0.00880   0.01048   0.01105
     Eigenvalues ---    0.01177   0.01185   0.01221   0.01299   0.01322
     Eigenvalues ---    0.01324   0.01350   0.01364   0.01376   0.01422
     Eigenvalues ---    0.01528   0.01642   0.01722   0.01773   0.01796
     Eigenvalues ---    0.01903   0.02006   0.02025   0.02040   0.02073
     Eigenvalues ---    0.02110   0.02124   0.02128   0.02296   0.02433
     Eigenvalues ---    0.02744   0.03014   0.03271   0.03551   0.03963
     Eigenvalues ---    0.04268   0.04691   0.04790   0.04792   0.05172
     Eigenvalues ---    0.05205   0.05396   0.05715   0.05796   0.05801
     Eigenvalues ---    0.06157   0.06643   0.07183   0.07197   0.07246
     Eigenvalues ---    0.07518   0.08106   0.08211   0.08415   0.08504
     Eigenvalues ---    0.09496   0.09772   0.09887   0.10008   0.10115
     Eigenvalues ---    0.10288   0.10498   0.11962   0.12166   0.14609
     Eigenvalues ---    0.14864   0.15999   0.15999   0.16000   0.16000
     Eigenvalues ---    0.16000   0.16000   0.16000   0.16000   0.16000
     Eigenvalues ---    0.16000   0.16000   0.16000   0.16699   0.16723
     Eigenvalues ---    0.17231   0.18903   0.19454   0.20149   0.23009
     Eigenvalues ---    0.23525   0.24390   0.24952   0.24971   0.24982
     Eigenvalues ---    0.24987   0.24987   0.24997   0.24998   0.24999
     Eigenvalues ---    0.24999   0.25000   0.25000   0.25000   0.25000
     Eigenvalues ---    0.25000   0.25000   0.27446   0.27498   0.27522
     Eigenvalues ---    0.27671   0.27990   0.28285   0.28821   0.30701
     Eigenvalues ---    0.31217   0.31646   0.31947   0.32511   0.32667
     Eigenvalues ---    0.33295   0.33742   0.33895   0.33905   0.33953
     Eigenvalues ---    0.33965   0.33971   0.34026   0.34038   0.34040
     Eigenvalues ---    0.34078   0.34194   0.34234   0.34273   0.34293
     Eigenvalues ---    0.34297   0.34308   0.34413   0.34560   0.35083
     Eigenvalues ---    0.35316   0.38417   0.38471   0.38990   0.39817
     Eigenvalues ---    0.40802   0.41311   0.41591   0.43275   0.44438
     Eigenvalues ---    0.45077   0.45440   0.45984   0.49805   0.50320
     Eigenvalues ---    0.50678   0.51016   0.51332   0.51495   0.51919
     Eigenvalues ---    0.52719   0.53071   0.53915   0.54107   0.56326
     Eigenvalues ---    0.91659   0.93822   0.93920
 RFO step:  Lambda=-2.44999410D-02 EMin= 2.30000000D-03
 Linear search not attempted -- first point.
 Iteration  1 RMS(Cart)=  0.08573078 RMS(Int)=  0.00165719
 Iteration  2 RMS(Cart)=  0.00299288 RMS(Int)=  0.00032288
 Iteration  3 RMS(Cart)=  0.00000763 RMS(Int)=  0.00032286
 Iteration  4 RMS(Cart)=  0.00000002 RMS(Int)=  0.00032286
 Variable       Old X    -DE/DX   Delta X   Delta X   Delta X     New X
                                 (Linear)    (Quad)   (Total)
    R1        2.63924   0.00532   0.00000   0.01015   0.01046   2.64970
    R2        2.64966  -0.00132   0.00000  -0.00270  -0.00278   2.64688
    R3        2.84241   0.00221   0.00000   0.00643   0.00643   2.84883
    R4        2.64054   0.00483   0.00000   0.00912   0.00950   2.65004
    R5        2.58386  -0.00477   0.00000  -0.00884  -0.00884   2.57502
    R6        2.65431  -0.00673   0.00000  -0.01428  -0.01420   2.64011
    R7        2.05165   0.00061   0.00000   0.00161   0.00161   2.05327
    R8        2.64960   0.00841   0.00000   0.02005   0.01941   2.66900
    R9        2.78554  -0.01049   0.00000  -0.02678  -0.02672   2.75882
   R10        2.66492   0.00453   0.00000   0.01203   0.01060   2.67552
   R11        2.79712  -0.01026   0.00000  -0.02542  -0.02665   2.77047
   R12        2.59799  -0.02872   0.00000  -0.05429  -0.05453   2.54346
   R13        2.53601   0.00353   0.00000   0.00651   0.00694   2.54295
   R14        2.85754  -0.00069   0.00000  -0.00125  -0.00122   2.85632
   R15        2.65936  -0.02061   0.00000  -0.04561  -0.04527   2.61409
   R16        2.83673  -0.00460   0.00000  -0.01189  -0.01188   2.82485
   R17        2.57173  -0.00165   0.00000  -0.00376  -0.00380   2.56793
   R18        2.32082  -0.00171   0.00000  -0.00201  -0.00189   2.31892
   R19        2.91973   0.00100   0.00000   0.00111   0.00111   2.92084
   R20        2.07389  -0.00059   0.00000  -0.00163  -0.00163   2.07227
   R21        2.07410  -0.00138   0.00000  -0.00380  -0.00380   2.07030
   R22        2.90982   0.00020   0.00000   0.00033   0.00027   2.91009
   R23        2.73762  -0.01236   0.00000  -0.03024  -0.03024   2.70738
   R24        2.91519  -0.00481   0.00000  -0.01565  -0.01565   2.89954
   R25        2.88619   0.00535   0.00000   0.01479   0.01479   2.90097
   R26        2.07508  -0.00195   0.00000  -0.00535  -0.00535   2.06972
   R27        2.07768  -0.00232   0.00000  -0.00641  -0.00641   2.07127
   R28        2.07263  -0.00022   0.00000  -0.00061  -0.00061   2.07202
   R29        2.07198   0.00199   0.00000   0.00546   0.00546   2.07744
   R30        2.06937  -0.00115   0.00000  -0.00313  -0.00313   2.06623
   R31        2.06873  -0.00114   0.00000  -0.00310  -0.00310   2.06562
   R32        2.06814   0.00158   0.00000   0.00429   0.00429   2.07243
   R33        1.85764   0.00467   0.00000   0.00776   0.00876   1.86640
   R34        1.83588  -0.00188   0.00000  -0.00338  -0.00338   1.83249
   R35        3.23716   0.00348   0.00000   0.02896   0.03007   3.26723
   R36        2.72949   0.00155   0.00000   0.00375   0.00375   2.73324
   R37        2.91179  -0.00547   0.00000  -0.01551  -0.01554   2.89625
   R38        2.90997   0.00095   0.00000   0.00225   0.00227   2.91224
   R39        2.07286   0.00007   0.00000   0.00019   0.00019   2.07305
   R40        2.90822  -0.00640   0.00000  -0.02061  -0.02057   2.88766
   R41        2.71803  -0.00749   0.00000  -0.01773  -0.01773   2.70030
   R42        2.07379   0.00114   0.00000   0.00312   0.00312   2.07691
   R43        2.82056   0.00366   0.00000   0.01034   0.01034   2.83090
   R44        2.69447   0.00625   0.00000   0.01420   0.01420   2.70867
   R45        2.07265   0.00449   0.00000   0.01232   0.01232   2.08497
   R46        2.54147  -0.00406   0.00000  -0.00730  -0.00731   2.53416
   R47        2.05540  -0.00142   0.00000  -0.00378  -0.00378   2.05162
   R48        2.84407   0.00380   0.00000   0.01029   0.01028   2.85434
   R49        2.81836   0.00080   0.00000   0.00223   0.00223   2.82059
   R50        2.07004  -0.00091   0.00000  -0.00249  -0.00249   2.06755
   R51        2.07491  -0.00007   0.00000  -0.00019  -0.00019   2.07472
   R52        1.85244  -0.00499   0.00000  -0.00928  -0.00928   1.84316
   R53        1.84677  -0.00458   0.00000  -0.00842  -0.00842   1.83835
   R54        2.55935  -0.00356   0.00000  -0.00629  -0.00629   2.55306
   R55        2.31177  -0.01110   0.00000  -0.01152  -0.01152   2.30025
   R56        2.69810   0.00472   0.00000   0.01080   0.01080   2.70890
   R57        2.06639  -0.00117   0.00000  -0.00317  -0.00317   2.06322
   R58        2.06838  -0.00080   0.00000  -0.00219  -0.00219   2.06619
   R59        2.06832  -0.00062   0.00000  -0.00169  -0.00169   2.06663
   R60        2.53973   0.00261   0.00000   0.00444   0.00444   2.54416
   R61        2.31220  -0.01223   0.00000  -0.01270  -0.01270   2.29950
   R62        1.85554  -0.00371   0.00000  -0.00694  -0.00694   1.84860
    A1        2.05914  -0.00375   0.00000  -0.01234  -0.01280   2.04635
    A2        2.11393   0.00333   0.00000   0.01180   0.01198   2.12591
    A3        2.10862   0.00045   0.00000   0.00130   0.00148   2.11010
    A4        2.11886   0.00424   0.00000   0.01508   0.01509   2.13395
    A5        2.07478  -0.00965   0.00000  -0.03495  -0.03498   2.03980
    A6        2.08954   0.00541   0.00000   0.01990   0.01987   2.10941
    A7        2.10780  -0.00340   0.00000  -0.01288  -0.01307   2.09473
    A8        2.06891   0.00241   0.00000   0.01027   0.01036   2.07927
    A9        2.10643   0.00099   0.00000   0.00259   0.00269   2.10912
   A10        2.06489   0.00386   0.00000   0.01455   0.01410   2.07899
   A11        2.13143   0.00452   0.00000   0.01125   0.01211   2.14353
   A12        2.08677  -0.00838   0.00000  -0.02575  -0.02616   2.06061
   A13        2.10237  -0.00362   0.00000  -0.01470  -0.01384   2.08854
   A14        2.08929   0.00211   0.00000   0.00822   0.00911   2.09840
   A15        2.09141   0.00150   0.00000   0.00646   0.00471   2.09612
   A16        2.11230   0.00268   0.00000   0.01079   0.01091   2.12321
   A17        2.03791   0.00330   0.00000   0.00706   0.00884   2.04675
   A18        2.13294  -0.00598   0.00000  -0.01783  -0.01974   2.11321
   A19        2.05806   0.00403   0.00000   0.01581   0.01572   2.07378
   A20        2.10179  -0.00195   0.00000  -0.00926  -0.00925   2.09254
   A21        2.12334  -0.00207   0.00000  -0.00655  -0.00651   2.11682
   A22        2.14748   0.00133   0.00000   0.00151   0.00168   2.14916
   A23        2.15768   0.00719   0.00000   0.03009   0.03001   2.18769
   A24        1.97802  -0.00852   0.00000  -0.03160  -0.03170   1.94632
   A25        2.13171  -0.00014   0.00000  -0.00344  -0.00385   2.12786
   A26        2.04993   0.00106   0.00000   0.00408   0.00393   2.05386
   A27        2.10350   0.02470   0.00000   0.09263   0.09143   2.19493
   A28        2.12965  -0.02576   0.00000  -0.09675  -0.09539   2.03427
   A29        2.02968  -0.00224   0.00000  -0.01396  -0.01397   2.01571
   A30        1.91297  -0.00142   0.00000  -0.01214  -0.01205   1.90092
   A31        1.86130   0.00439   0.00000   0.03458   0.03446   1.89576
   A32        1.88924   0.00388   0.00000   0.02584   0.02588   1.91512
   A33        1.89455  -0.00384   0.00000  -0.02863  -0.02843   1.86612
   A34        1.86994  -0.00079   0.00000  -0.00598  -0.00579   1.86415
   A35        1.91358   0.00209   0.00000   0.01119   0.01108   1.92466
   A36        1.93724   0.00079   0.00000   0.01548   0.01546   1.95270
   A37        1.99217  -0.00071   0.00000  -0.00865  -0.00857   1.98360
   A38        1.82618  -0.00046   0.00000  -0.00367  -0.00381   1.82237
   A39        1.87651  -0.00144   0.00000  -0.00716  -0.00714   1.86937
   A40        1.90985  -0.00030   0.00000  -0.00739  -0.00740   1.90244
   A41        1.97389   0.00138   0.00000   0.00390   0.00396   1.97786
   A42        1.93006  -0.00127   0.00000  -0.01636  -0.01637   1.91369
   A43        1.90287  -0.00484   0.00000  -0.03672  -0.03675   1.86612
   A44        1.90978  -0.00066   0.00000   0.00707   0.00699   1.91677
   A45        1.90605   0.00357   0.00000   0.02258   0.02250   1.92855
   A46        1.83595   0.00190   0.00000   0.02105   0.02045   1.85640
   A47        1.97369  -0.00624   0.00000  -0.02858  -0.02851   1.94518
   A48        1.91194   0.00102   0.00000  -0.00375  -0.00362   1.90832
   A49        1.89945   0.00136   0.00000   0.00781   0.00797   1.90742
   A50        1.89260   0.00322   0.00000   0.01649   0.01628   1.90887
   A51        1.92199   0.00297   0.00000   0.02020   0.02023   1.94222
   A52        1.86081  -0.00212   0.00000  -0.01144  -0.01163   1.84919
   A53        1.94045  -0.00180   0.00000  -0.00819  -0.00815   1.93231
   A54        1.95050  -0.00318   0.00000  -0.01401  -0.01395   1.93655
   A55        1.91817   0.00460   0.00000   0.02019   0.02026   1.93843
   A56        1.85316   0.00492   0.00000   0.03561   0.03564   1.88880
   A57        1.90315  -0.00310   0.00000  -0.02290  -0.02285   1.88030
   A58        1.89657  -0.00155   0.00000  -0.01121  -0.01114   1.88543
   A59        1.90852  -0.01919   0.00000  -0.09985  -0.10077   1.80775
   A60        1.91860  -0.00403   0.00000  -0.02187  -0.02187   1.89673
   A61        2.05284   0.01249   0.00000   0.04549   0.04549   2.09833
   A62        1.87041  -0.00104   0.00000  -0.00853  -0.00864   1.86177
   A63        1.91010   0.00068   0.00000   0.00991   0.00991   1.92001
   A64        1.92950   0.00025   0.00000  -0.00239  -0.00253   1.92697
   A65        1.92399   0.00223   0.00000   0.01413   0.01409   1.93808
   A66        1.90300  -0.00199   0.00000  -0.01396  -0.01400   1.88900
   A67        1.92611  -0.00013   0.00000   0.00063   0.00075   1.92685
   A68        1.94268   0.00370   0.00000   0.01549   0.01555   1.95823
   A69        1.94762   0.00440   0.00000   0.02901   0.02911   1.97673
   A70        1.92264  -0.00406   0.00000  -0.02988  -0.03073   1.89191
   A71        1.87021  -0.00747   0.00000  -0.03601  -0.03610   1.83411
   A72        1.93447  -0.00195   0.00000  -0.03752  -0.03746   1.89701
   A73        1.84335   0.00539   0.00000   0.06067   0.06044   1.90379
   A74        1.99002  -0.00201   0.00000  -0.00958  -0.00981   1.98021
   A75        1.90479   0.00403   0.00000   0.02177   0.02186   1.92664
   A76        1.92347  -0.00462   0.00000  -0.04249  -0.04271   1.88076
   A77        1.88441  -0.00138   0.00000  -0.00114  -0.00108   1.88333
   A78        1.89719   0.00211   0.00000   0.00326   0.00246   1.89965
   A79        1.85910   0.00222   0.00000   0.03204   0.03233   1.89143
   A80        2.14741   0.00046   0.00000   0.00447   0.00444   2.15185
   A81        2.01844   0.00074   0.00000   0.00298   0.00299   2.02143
   A82        2.11728  -0.00120   0.00000  -0.00750  -0.00750   2.10978
   A83        2.13366   0.00198   0.00000   0.00838   0.00835   2.14200
   A84        2.14038  -0.00138   0.00000  -0.00567  -0.00566   2.13472
   A85        2.00876  -0.00059   0.00000  -0.00261  -0.00260   2.00616
   A86        2.00941  -0.00462   0.00000  -0.01857  -0.01861   1.99080
   A87        1.88318   0.00472   0.00000   0.03611   0.03621   1.91939
   A88        1.91313  -0.00094   0.00000  -0.01667  -0.01662   1.89651
   A89        1.90012  -0.00032   0.00000  -0.00620  -0.00607   1.89405
   A90        1.89964   0.00290   0.00000   0.01521   0.01497   1.91460
   A91        1.85188  -0.00156   0.00000  -0.00929  -0.00914   1.84274
   A92        1.88207   0.00129   0.00000   0.00702   0.00702   1.88909
[...]
     50          1           0        5.932729    1.272023    0.651410
     51          1           0        1.878124    1.155317   -0.397565
     52          1           0        2.746831    0.429964   -1.726358
     53          1           0        3.120499   -3.255821    0.405541
     54          1           0        6.249817   -2.222794    0.856861
     55          1           0        6.220178    5.092734   -0.296658
     56          1           0        5.045997    4.929586   -1.644843
     57          1           0        4.461536    5.308959   -0.007798
     58          1           0       -0.360414   -2.971867    2.636513
 ---------------------------------------------------------------------
 Rotational constants (GHZ):      0.1715024      0.0687674      0.0519883

 **********************************************************************

            Population analysis using the SCF density.

 **********************************************************************

 Orbital symmetries:
       Occupied  (A) (A) (A) (A) (A) (A) (A) (A) (A) (A) (A) (A)
                 (A) (A) (A) (A) (A) (A) (A) (A) (A) (A) (A) (A)
                 (A) (A) (A) (A) (A) (A) (A) (A) (A) (A) (A) (A)
                 (A) (A) (A) (A) (A) (A) (A) (A) (A) (A) (A) (A)
                 (A) (A) (A) (A) (A) (A) (A) (A) (A) (A) (A) (A)
                 (A) (A) (A) (A) (A) (A) (A) (A) (A) (A) (A) (A)
                 (A) (A) (A) (A) (A) (A) (A) (A) (A) (A) (A) (A)
                 (A) (A) (A) (A) (A) (A) (A) (A) (A) (A) (A) (A)
                 (A) (A) (A) (A) (A) (A) (A) (A) (A) (A) (A) (A)
                 (A) (A) (A) (A) (A) (A) (A) (A) (A) (A) (A) (A)
                 (A) (A) (A) (A) (A)
       Virtual   (A) (A) (A) (A) (A) (A) (A) (A) (A) (A) (A) (A)
                 (A) (A) (A) (A) (A) (A) (A) (A) (A) (A) (A) (A)
                 (A) (A) (A) (A) (A) (A) (A) (A) (A) (A) (A) (A)
                 (A) (A) (A) (A) (A) (A) (A) (A) (A) (A) (A) (A)
                 (A) (A) (A) (A) (A) (A) (A) (A) (A) (A) (A) (A)
                 (A) (A) (A) (A) (A) (A) (A) (A) (A) (A) (A) (A)
                 (A) (A) (A) (A) (A) (A) (A) (A) (A) (A) (A) (A)
                 (A) (A) (A) (A) (A) (A) (A) (A) (A) (A) (A) (A)
                 (A) (A) (A) (A) (A) (A) (A) (A) (A) (A) (A) (A)
                 (A) (A) (A) (A) (A) (A) (A) (A) (A) (A) (A) (A)
                 (A) (A) (A) (A) (A) (A) (A) (A) (A) (A) (A) (A)
                 (A) (A) (A) (A) (A) (A) (A) (A) (A) (A) (A) (A)
                 (A) (A) (A) (A) (A) (A) (A) (A) (A) (A) (A) (A)
                 (A) (A) (A) (A) (A) (A) (A) (A) (A) (A) (A) (A)
                 (A) (A) (A) (A) (A) (A) (A) (A) (A) (A) (A) (A)
                 (A) (A) (A) (A) (A) (A) (A) (A) (A) (A) (A) (A)
                 (A) (A) (A) (A) (A) (A) (A) (A) (A) (A) (A) (A)
                 (A) (A) (A) (A) (A) (A) (A) (A) (A) (A) (A) (A)
                 (A) (A) (A) (A) (A) (A) (A) (A) (A) (A) (A) (A)
                 (A) (A) (A) (A) (A) (A) (A) (A) (A) (A) (A) (A)
                 (A) (A) (A) (A) (A) (A) (A) (A) (A) (A) (A) (A)
                 (A) (A) (A) (A) (A) (A) (A) (A) (A) (A) (A) (A)
                 (A) (A) (A) (A) (A) (A) (A) (A) (A) (A) (A) (A)
                 (A) (A) (A) (A) (A) (A) (A) (A) (A) (A) (A) (A)
                 (A) (A) (A) (A) (A) (A) (A) (A) (A) (A) (A) (A)
                 (A) (A) (A) (A) (A) (A) (A) (A) (A) (A) (A) (A)
                 (A) (A) (A) (A) (A) (A) (A) (A) (A) (A) (A) (A)
                 (A) (A) (A) (A) (A) (A) (A) (A) (A) (A) (A) (A)
                 (A) (A) (A) (A) (A) (A) (A) (A) (A) (A) (A) (A)
                 (A) (A) (A) (A) (A) (A) (A) (A) (A) (A) (A) (A)
                 (A) (A) (A) (A) (A) (A) (A) (A) (A) (A) (A) (A)
                 (A) (A) (A) (A) (A) (A) (A) (A) (A) (A) (A) (A)
                 (A) (A) (A) (A) (A) (A) (A) (A) (A) (A) (A) (A)
                 (A) (A) (A) (A) (A) (A) (A) (A) (A) (A) (A) (A)
                 (A) (A) (A) (A) (A) (A) (A) (A) (A) (A) (A) (A)
                 (A) (A) (A) (A) (A) (A) (A) (A) (A) (A) (A) (A)
                 (A)
 The electronic state is 1-A.
 Alpha  occ. eigenvalues --  -19.23187 -19.22251 -19.19850 -19.19773 -19.17849
 Alpha  occ. eigenvalues --  -19.17449 -19.17052 -19.14502 -19.14363 -19.14192
 Alpha  occ. eigenvalues --  -19.14113 -10.35065 -10.32906 -10.32162 -10.28845
 Alpha  occ. eigenvalues --  -10.27375 -10.26962 -10.26790 -10.25975 -10.24661
 Alpha  occ. eigenvalues --  -10.24609 -10.23934 -10.22767 -10.21990 -10.21936
 Alpha  occ. eigenvalues --  -10.21743 -10.21663 -10.21613 -10.21037 -10.20831
 Alpha  occ. eigenvalues --  -10.20438 -10.19934 -10.19835 -10.17767  -1.14178
 Alpha  occ. eigenvalues --   -1.12632  -1.10764  -1.07934  -1.06662  -1.06480
 Alpha  occ. eigenvalues --   -1.04531  -1.03118  -1.02966  -1.01846  -1.00672
 Alpha  occ. eigenvalues --   -0.88189  -0.86377  -0.84816  -0.81001  -0.79185
 Alpha  occ. eigenvalues --   -0.77319  -0.76278  -0.75714  -0.74691  -0.72320
 Alpha  occ. eigenvalues --   -0.70318  -0.69310  -0.66913  -0.66474  -0.65221
 Alpha  occ. eigenvalues --   -0.63915  -0.62471  -0.61646  -0.59480  -0.58536
 Alpha  occ. eigenvalues --   -0.57301  -0.55478  -0.54981  -0.54825  -0.53790
 Alpha  occ. eigenvalues --   -0.53058  -0.51772  -0.51446  -0.51026  -0.49983
 Alpha  occ. eigenvalues --   -0.48923  -0.48737  -0.48462  -0.48151  -0.47609
 Alpha  occ. eigenvalues --   -0.47163  -0.47065  -0.46144  -0.45261  -0.44753
 Alpha  occ. eigenvalues --   -0.44507  -0.44253  -0.43952  -0.43697  -0.43166
 Alpha  occ. eigenvalues --   -0.42878  -0.42488  -0.41799  -0.41235  -0.40708
 Alpha  occ. eigenvalues --   -0.40585  -0.39915  -0.39672  -0.39498  -0.39135
 Alpha  occ. eigenvalues --   -0.38777  -0.38375  -0.37874  -0.37514  -0.37417
 Alpha  occ. eigenvalues --   -0.36315  -0.35572  -0.35237  -0.35115  -0.34897
 Alpha  occ. eigenvalues --   -0.34722  -0.34032  -0.33609  -0.32921  -0.30832
 Alpha  occ. eigenvalues --   -0.30660  -0.29421  -0.28525  -0.28177  -0.27906
 Alpha  occ. eigenvalues --   -0.26709  -0.26402  -0.25856  -0.23695  -0.21753
 Alpha virt. eigenvalues --   -0.04837  -0.04768  -0.03285  -0.02796   0.03658
 Alpha virt. eigenvalues --    0.04504   0.05147   0.06210   0.06709   0.06904
 Alpha virt. eigenvalues --    0.08181   0.09299   0.09795   0.10657   0.10723
 Alpha virt. eigenvalues --    0.11187   0.11926   0.12304   0.12970   0.13251
 Alpha virt. eigenvalues --    0.13760   0.14290   0.14643   0.14980   0.15649
 Alpha virt. eigenvalues --    0.15752   0.15939   0.16597   0.16722   0.17277
 Alpha virt. eigenvalues --    0.17745   0.17877   0.18128   0.18338   0.19042
 Alpha virt. eigenvalues --    0.19270   0.19695   0.20887   0.21078   0.21523
 Alpha virt. eigenvalues --    0.22116   0.22457   0.23190   0.23328   0.24629
 Alpha virt. eigenvalues --    0.24939   0.25548   0.26285   0.27007   0.27515
 Alpha virt. eigenvalues --    0.28585   0.29632   0.29999   0.32139   0.32578
 Alpha virt. eigenvalues --    0.32973   0.33510   0.34113   0.35973   0.37755
 Alpha virt. eigenvalues --    0.39092   0.40074   0.40859   0.41092   0.43400
 Alpha virt. eigenvalues --    0.43489   0.45815   0.47104   0.47362   0.49179
 Alpha virt. eigenvalues --    0.50142   0.50271   0.50937   0.51229   0.51753
 Alpha virt. eigenvalues --    0.52272   0.52736   0.53128   0.53392   0.53810
 Alpha virt. eigenvalues --    0.54889   0.55327   0.55469   0.55872   0.56146
 Alpha virt. eigenvalues --    0.56806   0.57034   0.57745   0.58236   0.58891
 Alpha virt. eigenvalues --    0.59216   0.59732   0.60504   0.60684   0.61269
 Alpha virt. eigenvalues --    0.61428   0.62214   0.63509   0.63777   0.63984
 Alpha virt. eigenvalues --    0.64345   0.64817   0.65476   0.65645   0.66236
 Alpha virt. eigenvalues --    0.67207   0.67245   0.68403   0.68996   0.69540
 Alpha virt. eigenvalues --    0.70762   0.71454   0.71662   0.71965   0.72294
 Alpha virt. eigenvalues --    0.73070   0.73620   0.73923   0.74711   0.75315
 Alpha virt. eigenvalues --    0.76074   0.76356   0.76858   0.77774   0.78287
 Alpha virt. eigenvalues --    0.78923   0.79661   0.80970   0.81419   0.82543
 Alpha virt. eigenvalues --    0.82732   0.82874   0.83462   0.83900   0.84402
 Alpha virt. eigenvalues --    0.84974   0.85997   0.86001   0.86667   0.87124
 Alpha virt. eigenvalues --    0.87827   0.88249   0.88539   0.89566   0.90354
 Alpha virt. eigenvalues --    0.90484   0.91589   0.91806   0.92143   0.92588
 Alpha virt. eigenvalues --    0.92945   0.93358   0.93520   0.94279   0.95091
 Alpha virt. eigenvalues --    0.95345   0.96244   0.96320   0.96954   0.97294
 Alpha virt. eigenvalues --    0.97717   0.97972   0.98954   0.99377   0.99930
 Alpha virt. eigenvalues --    1.00541   1.00787   1.01623   1.02857   1.03137
 Alpha virt. eigenvalues --    1.03528   1.03903   1.04030   1.05809   1.06808
 Alpha virt. eigenvalues --    1.07536   1.08504   1.08923   1.10037   1.10625
 Alpha virt. eigenvalues --    1.11452   1.12656   1.13075   1.15192   1.15418
 Alpha virt. eigenvalues --    1.16755   1.18203   1.19070   1.19643   1.20938
 Alpha virt. eigenvalues --    1.22466   1.23439   1.23771   1.24179   1.25052
 Alpha virt. eigenvalues --    1.25734   1.26738   1.27203   1.29437   1.30052
 Alpha virt. eigenvalues --    1.30218   1.31873   1.32297   1.33156   1.34108
 Alpha virt. eigenvalues --    1.35083   1.35359   1.36385   1.36780   1.37098
 Alpha virt. eigenvalues --    1.37454   1.38040   1.38348   1.38974   1.39768
 Alpha virt. eigenvalues --    1.42202   1.42564   1.43047   1.43302   1.44617
 Alpha virt. eigenvalues --    1.44963   1.45872   1.48988   1.49254   1.50024
 Alpha virt. eigenvalues --    1.50881   1.51972   1.55302   1.55730   1.58544
 Alpha virt. eigenvalues --    1.59202   1.60504   1.62149   1.62745   1.63584
 Alpha virt. eigenvalues --    1.65607   1.65787   1.66515   1.67433   1.69190
 Alpha virt. eigenvalues --    1.69700   1.69922   1.70702   1.71250   1.71683
 Alpha virt. eigenvalues --    1.71871   1.72524   1.72638   1.73682   1.74100
 Alpha virt. eigenvalues --    1.74740   1.75060   1.75596   1.77120   1.77329
 Alpha virt. eigenvalues --    1.77805   1.78981   1.79282   1.79763   1.80924
 Alpha virt. eigenvalues --    1.81021   1.81925   1.82489   1.83397   1.83736
 Alpha virt. eigenvalues --    1.84573   1.84843   1.85231   1.86134   1.86688
 Alpha virt. eigenvalues --    1.87096   1.87596   1.88084   1.88273   1.89800
 Alpha virt. eigenvalues --    1.90967   1.91590   1.91996   1.92304   1.92374
 Alpha virt. eigenvalues --    1.93602   1.93661   1.94988   1.95569   1.96407
 Alpha virt. eigenvalues --    1.96737   1.97711   1.98200   1.98352   1.99679
 Alpha virt. eigenvalues --    2.00775   2.01661   2.01962   2.02884   2.03524
 Alpha virt. eigenvalues --    2.04402   2.05230   2.05497   2.06313   2.06738
 Alpha virt. eigenvalues --    2.07865   2.08544   2.09751   2.10281   2.10963
 Alpha virt. eigenvalues --    2.11657   2.12464   2.14769   2.15054   2.16733
 Alpha virt. eigenvalues --    2.18298   2.19809   2.21193   2.22111   2.22764
 Alpha virt. eigenvalues --    2.23498   2.25141   2.25823   2.26473   2.27294
 Alpha virt. eigenvalues --    2.28095   2.28708   2.29033   2.29628   2.30559
 Alpha virt. eigenvalues --    2.31153   2.31737   2.32946   2.33215   2.34124
 Alpha virt. eigenvalues --    2.35263   2.35705   2.37325   2.37573   2.39702
 Alpha virt. eigenvalues --    2.40263   2.41309   2.41733   2.42523   2.43991
 Alpha virt. eigenvalues --    2.44362   2.45444   2.46417   2.46747   2.47673
 Alpha virt. eigenvalues --    2.47990   2.49866   2.52475   2.52930   2.54320
 Alpha virt. eigenvalues --    2.54624   2.54752   2.55837   2.55944   2.57004
 Alpha virt. eigenvalues --    2.58129   2.61099   2.62064   2.63518   2.64369
 Alpha virt. eigenvalues --    2.65882   2.66931   2.68776   2.68970   2.69545
 Alpha virt. eigenvalues --    2.70031   2.71576   2.73064   2.75145   2.75878
 Alpha virt. eigenvalues --    2.76612   2.76788   2.78124   2.80081   2.81051
 Alpha virt. eigenvalues --    2.82565   2.84922   2.86042   2.86565   2.89717
 Alpha virt. eigenvalues --    2.91165   2.93690   2.95467   2.97006   2.97177
 Alpha virt. eigenvalues --    3.00038   3.01010   3.02521   3.05530   3.06377
 Alpha virt. eigenvalues --    3.08448   3.11231   3.13421   3.15859   3.17791
 Alpha virt. eigenvalues --    3.22424   3.23319   3.43656   3.50147   3.80573
 Alpha virt. eigenvalues --    3.86913   3.95038   3.95305   3.97006   3.99874
 Alpha virt. eigenvalues --    4.05956   4.08135   4.10637   4.14154   4.18779
 Alpha virt. eigenvalues --    4.19762   4.20045   4.22290   4.24235   4.25512
 Alpha virt. eigenvalues --    4.27121   4.32592   4.33409   4.36115   4.37861
 Alpha virt. eigenvalues --    4.39230   4.42744   4.48554   4.51083   4.53044
 Alpha virt. eigenvalues --    4.55950   4.56520   4.59769   4.65735   4.70184
 Alpha virt. eigenvalues --    4.75343   4.80736   4.87704
          Condensed to atoms (all electrons):
 Mulliken atomic charges:
              1
     1  C    0.098540
     2  C    0.322057
     3  C   -0.306181
     4  C    0.136886
     5  C   -0.061459
     6  C    0.239183
     7  C    0.073385
     8  C    0.292177
     9  O   -0.500329
    10  C    0.596829
    11  C   -0.387040
    12  C    0.260207
    13  C   -0.301332
    14  C   -0.367503
    15  C   -0.517851
    16  O   -0.655293
    17  O   -0.633447
    18  O   -0.534406
    19  O   -0.544988
    20  C    0.096236
    21  C    0.126092
    22  C    0.111113
    23  C   -0.156051
    24  C    0.054389
    25  C   -0.350365
    26  O   -0.684211
    27  O   -0.642637
    28  C    0.602757
    29  O   -0.463491
    30  O   -0.498793
    31  C   -0.216426
    32  C    0.590426
    33  O   -0.559229
    34  O   -0.475073
    35  H    0.125558
    36  H    0.165088
    37  H    0.184494
    38  H    0.174545
    39  H    0.172266
    40  H    0.183822
    41  H    0.175779
    42  H    0.184323
    43  H    0.165194
    44  H    0.166535
    45  H    0.448013
    46  H    0.416651
    47  H    0.130718
    48  H    0.133375
    49  H    0.137154
    50  H    0.177758
    51  H    0.165104
    52  H    0.177157
    53  H    0.431798
    54  H    0.411929
    55  H    0.167785
    56  H    0.172575
    57  H    0.168106
    58  H    0.420101
 Sum of Mulliken atomic charges =   0.00000
 Mulliken charges with hydrogens summed into heavy atoms:
              1
     1  C    0.098540
     2  C    0.322057
     3  C   -0.180623
     4  C    0.136886
     5  C   -0.061459
     6  C    0.239183
     7  C    0.073385
     8  C    0.292177
     9  O   -0.500329
    10  C    0.596829
    11  C   -0.037459
    12  C    0.260207
    13  C    0.045479
    14  C   -0.007902
    15  C   -0.001799
    16  O   -0.207280
    17  O   -0.216796
    18  O   -0.534406
    19  O   -0.544988
    20  C    0.226954
    21  C    0.259466
    22  C    0.248267
    23  C    0.021707
    24  C    0.054389
    25  C   -0.008103
    26  O   -0.252412
    27  O   -0.230708
    28  C    0.602757
    29  O   -0.463491
    30  O   -0.498793
    31  C    0.292041
    32  C    0.590426
    33  O   -0.139128
    34  O   -0.475073
 Sum of Mulliken charges with hydrogens summed into heavy atoms =   0.00000
 Electronic spatial extent (au):  <R**2>=          19470.9402
 Charge=              0.0000 electrons
 Dipole moment (field-independent basis, Debye):
    X=              2.6768    Y=              1.2348    Z=              1.5267  Tot=              3.3198
 Quadrupole moment (field-independent basis, Debye-Ang):
   XX=           -239.4690   YY=           -184.8933   ZZ=           -187.4946
   XY=             12.9869   XZ=             -2.1881   YZ=              0.8634
 Traceless Quadrupole moment (field-independent basis, Debye-Ang):
   XX=            -35.5167   YY=             19.0590   ZZ=             16.4577
   XY=             12.9869   XZ=             -2.1881   YZ=              0.8634
 Octapole moment (field-independent basis, Debye-Ang**2):
  XXX=            170.6027  YYY=             38.4149  ZZZ=             23.7118  XYY=             72.4127
  XXY=            113.4238  XXZ=              9.8641  XZZ=             10.7278  YZZ=            -29.7092
  YYZ=              9.9867  XYZ=             12.4481
 Hexadecapole moment (field-independent basis, Debye-Ang**3):
 XXXX=         -19086.0195 YYYY=          -6250.2976 ZZZZ=           -797.7352 XXXY=            241.8181
 XXXZ=           -124.0677 YYYX=            482.2340 YYYZ=            -23.1682 ZZZX=              9.1281
 ZZZY=            -94.8918 XXYY=          -3728.2186 XXZZ=          -3004.8577 YYZZ=          -1184.0934
 XXYZ=           -109.1117 YYXZ=            -54.0511 ZZXY=             38.5268
 N-N= 3.678133050380D+03 E-N=-1.136932505093D+04  KE= 1.703115452223D+03
 1\1\GINC-B0800\FOpt\RB3LYP\6-31G(d)\C23H24O11\CAOFEI\02-Feb-2021\0\\# 
 opt b3lyp/6-31g(d) geom=connectivity\\Title Card Required\\0,1\C,3.847
 6692206,-3.7642581119,-0.1374649723\C,3.3688118353,-2.6081850523,0.497
 9355052\C,2.1846499537,-1.964270673,0.1170705896\C,1.4204862773,-2.478
 7642579,-0.930627784\C,1.8661602075,-3.6550750032,-1.5896219163\C,3.08
 17535566,-4.2848621324,-1.1892137741\C,0.1749276252,-1.8753090089,-1.3
 807236241\C,-0.5246940275,-2.4836023533,-2.3619676088\O,-0.0938459616,
 -3.6221244341,-2.9892312117\C,1.0929066116,-4.2354211138,-2.6610763404
 \C,-0.3326501247,-0.6013144557,-0.7371547369\C,-1.5127009088,0.0738037
 132,-1.4707088639\C,-2.5017881239,-1.0027242968,-1.9645078195\C,-1.839
 2554645,-2.0128311729,-2.9065256941\C,5.131638216,-4.4120290187,0.3100
 921839\O,3.5215134658,-5.3936154958,-1.8059966732\O,4.130015856,-2.133
 8013776,1.5226348336\O,1.3894527628,-5.239065931,-3.3062849128\O,-2.28
 60792399,0.9006695071,-0.6102362446\C,-1.6743990655,2.0368428662,0.034
 7519334\C,-2.6876105106,3.1814402129,-0.0517695403\C,-2.1338050177,4.4
 428599859,0.6153456054\C,-1.5852053637,4.164988331,1.9830318713\C,-1.1
 962494987,2.9407336532,2.3706259401\C,-1.3462373568,1.710089021,1.4999
 304945\O,-3.0070444912,3.5535698675,-1.3781482305\O,-3.1333088138,5.44
 77641172,0.713775745\C,-0.5854576558,2.6910430064,3.7053837325\O,-0.56
 15573316,3.7836260118,4.4998389035\O,-0.1461290748,1.6084015047,4.0504
 577313\C,0.0177562068,3.5869399522,5.7984632075\C,-1.099184482,0.91147
 55249,-2.7010617813\O,0.1254424093,0.6234903596,-3.1802342903\O,-1.824
 9452299,1.7324979414,-3.223497752\H,1.8679921642,-1.0754676863,0.65466
 25688\H,0.4970800241,0.1075803742,-0.6371064958\H,-0.6830364735,-0.821
 5692815,0.2789105471\H,-3.3479970435,-0.5078582871,-2.449196011\H,-2.8
 819422763,-1.5103485679,-1.0711720665\H,-2.4945894643,-2.8794802906,-3
 .0512951113\H,-1.6863783393,-1.5837510007,-3.9075637689\H,5.3417422698
 ,-5.2997045223,-0.2875516324\H,5.9756568183,-3.7182116076,0.2175346259
 \H,5.0775233215,-4.7030849474,1.3657413457\H,2.861315595,-5.6187056378
 ,-2.5124477824\H,3.6999959577,-1.3530918538,1.90623137\H,-0.7653725719
 ,2.3328321848,-0.5092269257\H,-3.593119599,2.8728612245,0.4970371297\H
 ,-1.3065975774,4.8068165301,-0.0229770391\H,-1.481261746,5.0169361709,
 2.6477418332\H,-0.438785057,1.1036532494,1.5738469984\H,-2.153866903,1
 .0803397804,1.8970051773\H,-2.996527221,2.7582956549,-1.9427891706\H,-
 3.5010138483,5.5348842392,-0.182245924\H,-0.051525137,4.5538728621,6.2
 974981919\H,-0.5359994986,2.8261874287,6.3550236605\H,1.0615382535,3.2
 728545911,5.7117534976\H,0.2541318802,1.1811777055,-3.9726994942\\Vers
 ion=EM64L-G09RevB.01\State=1-A\HF=-1718.3734619\RMSD=6.061e-09\RMSF=3.
 380e-06\Dipole=0.215779,1.1865199,0.5014917\Quadrupole=1.5414922,-15.7
 953205,14.2538283,18.6166607,5.0638611,-4.5198071\PG=C01 [X(C23H24O11)
 ]\\@


 THE ONLY TROUBLE WITH A SURE THING IS THE UNCERTAINTY.
     -- FROM A TEABAG (BELONGING TO W.H.?)
 Job cpu time:  0 days 17 hours  0 minutes  0.7 seconds.
 File lengths (MBytes):  RWF=    225 Int=      0 D2E=      0 Chk=     21 Scr=      1
 Normal termination of Gaussian 09 at Tue Feb  2 13:26:07 2021.
