 Entering Gaussian System, Link 0=g09
 Initial command:
 /public/software/g09/g09/l1.exe /tmp/Gau-6234.inp -scrdir=/tmp/
 Entering Link 1 = /public/software/g09/g09/l1.exe PID=      6235.
  
 Copyright (c) 1988,1990,1992,1993,1995,1998,2003,2009,2010,
            Gaussian, Inc.  All Rights Reserved.
  
 This is part of the Gaussian(R) 09 program.  It is based on
 the Gaussian(R) 03 system (copyright 2003, Gaussian, Inc.),
 the Gaussian(R) 98 system (copyright 1998, Gaussian, Inc.),
 the Gaussian(R) 94 system (copyright 1995, Gaussian, Inc.),
 the Gaussian 92(TM) system (copyright 1992, Gaussian, Inc.),
 the Gaussian 90(TM) system (copyright 1990, Gaussian, Inc.),
 the Gaussian 88(TM) system (copyright 1988, Gaussian, Inc.),
 the Gaussian 86(TM) system (copyright 1986, Carnegie Mellon
 University), and the Gaussian 82(TM) system (copyright 1983,
 Carnegie Mellon University). Gaussian is a federally registered
 trademark of Gaussian, Inc.
  
 This software contains proprietary and confidential information,
 including trade secrets, belonging to Gaussian, Inc.
  
 This software is provided under written license and may be
 used, copied, transmitted, or stored only in accord with that
 written license.
  
 The following legend is applicable only to US Government
 contracts under FAR:
  
                    RESTRICTED RIGHTS LEGEND
  
 Use, reproduction and disclosure by the US Government is
 subject to restrictions as set forth in subparagraphs (a)
 and (c) of the Commercial Computer Software - Restricted
 Rights clause in FAR 52.227-19.
  
 Gaussian, Inc.
 340 Quinnipiac St., Bldg. 40, Wallingford CT 06492
  
  
 ---------------------------------------------------------------
 Warning -- This program may not be used in any manner that
 competes with the business of Gaussian, Inc. or will provide
 assistance to any competitor of Gaussian, Inc.  The licensee
 of this program is prohibited from giving any competitor of
 Gaussian, Inc. access to this program.  By using this program,
 the user acknowledges that Gaussian, Inc. is engaged in the
 business of creating and licensing software in the field of
 computational chemistry and represents and warrants to the
 licensee that it is not a competitor of Gaussian, Inc. and that
 it will not use this program in any manner prohibited above.
 ---------------------------------------------------------------
  

 Cite this work as:
 Gaussian 09, Revision B.01,
 M. J. Frisch, G. W. Trucks, H. B. Schlegel, G. E. Scuseria, 
 M. A. Robb, J. R. Cheeseman, G. Scalmani, V. Barone, B. Mennucci, 
 G. A. Petersson, H. Nakatsuji, M. Caricato, X. Li, H. P. Hratchian, 
 A. F. Izmaylov, J. Bloino, G. Zheng, J. L. Sonnenberg, M. Hada, 
 M. Ehara, K. Toyota, R. Fukuda, J. Hasegawa, M. Ishida, T. Nakajima, 
 Y. Honda, O. Kitao, H. Nakai, T. Vreven, J. A. Montgomery, Jr., 
 J. E. Peralta, F. Ogliaro, M. Bearpark, J. J. Heyd, E. Brothers, 
 K. N. Kudin, V. N. Staroverov, T. Keith, R. Kobayashi, J. Normand, 
 K. Raghavachari, A. Rendell, J. C. Burant, S. S. Iyengar, J. Tomasi, 
 M. Cossi, N. Rega, J. M. Millam, M. Klene, J. E. Knox, J. B. Cross, 
 V. Bakken, C. Adamo, J. Jaramillo, R. Gomperts, R. E. Stratmann, 
 O. Yazyev, A. J. Austin, R. Cammi, C. Pomelli, J. W. Ochterski, 
 R. L. Martin, K. Morokuma, V. G. Zakrzewski, G. A. Voth, 
 P. Salvador, J. J. Dannenberg, S. Dapprich, A. D. Daniels, 
 O. Farkas, J. B. Foresman, J. V. Ortiz, J. Cioslowski, 
 and D. J. Fox, Gaussian, Inc., Wallingford CT, 2010.
 
 ******************************************
 Gaussian 09:  EM64L-G09RevB.01 12-Aug-2010
                 2-Feb-2021 
 ******************************************
 %mem=600MW
 %nprocshared=10
 Will use up to   10 processors via shared memory.
 --------------------------------------
 # opt b3lyp/6-31g(d) geom=connectivity
 --------------------------------------
 1/14=-1,18=20,19=15,26=3,38=1,57=2/1,3;
 2/9=110,12=2,17=6,18=5,40=1/2;
 3/5=1,6=6,7=1,11=2,16=1,25=1,30=1,71=1,74=-5/1,2,3;
 4//1;
 5/5=2,38=5/2;
 6/7=2,8=2,9=2,10=2,28=1/1;
 7//1,2,3,16;
 1/14=-1,18=20,19=15/3(2);
 2/9=110/2;
 99//99;
 2/9=110/2;
 3/5=1,6=6,7=1,11=2,16=1,25=1,30=1,71=1,74=-5/1,2,3;
 4/5=5,16=3/1;
 5/5=2,38=5/2;
 7//1,2,3,16;
 1/14=-1,18=20,19=15/3(-5);
 2/9=110/2;
 6/7=2,8=2,9=2,10=2,19=2,28=1/1;
 99/9=1/99;
 -------------------
 Title Card Required
 -------------------
 Symbolic Z-matrix:
 Charge =  0 Multiplicity = 1
 C                     3.75651  -3.52453   0.4016 
 C                     3.29993  -2.274     0.82758 
 C                     2.11079  -1.72519   0.34153 
 C                     1.32473  -2.41139  -0.59377 
 C                     1.75806  -3.6747   -1.0163 
 C                     2.96328  -4.22255  -0.52295 
 C                     0.07035  -1.8516   -1.12665 
 C                    -0.64443  -2.61012  -1.97234 
 O                    -0.23232  -3.88842  -2.39292 
 C                     0.93854  -4.44402  -1.97929 
 C                    -0.38107  -0.46316  -0.72739 
 C                    -1.56971   0.12037  -1.52487 
 C                    -2.58311  -0.99639  -1.8367 
 C                    -1.96038  -2.18885  -2.55799 
 C                     5.03887  -4.10834   0.92743 
 O                     3.41371  -5.45981  -0.91906 
 O                     3.96993  -1.50631   1.7393 
 O                     1.31158  -5.54652  -2.37169 
 O                    -2.31954   1.07623  -0.73602 
 C                    -1.62568   2.2531   -0.2682 
 C                    -2.5596    3.46111  -0.48578 
 C                    -1.95647   4.74807   0.10585 
 C                    -1.37182   4.56843   1.4652 
 C                    -1.09239   3.36185   1.98814 
 C                    -1.31751   2.0819    1.23385 
 O                    -2.79377   3.71307  -1.88171 
 O                    -2.97599   5.74165   0.19046 
 C                    -0.51307   3.31192   3.35961 
 O                    -0.50374   2.03105   3.80781 
 O                    -0.10495   4.28441   3.97483 
 C                     0.03154   1.88336   5.12372 
 C                    -1.1658    0.76919  -2.86421 
 O                    -0.06692   0.25425  -3.44194 
 O                    -1.77363   1.67618  -3.4162 
 H                     1.81936  -0.75047   0.72374 
 H                     0.46006   0.23728  -0.80398 
 H                    -0.65996  -0.51497   0.33259 
 H                    -3.41798  -0.60474  -2.43293 
 H                    -3.03743  -1.34004  -0.89627 
 H                    -2.66633  -3.02721  -2.5164 
 H                    -1.81537  -1.95326  -3.61903 
 H                     5.31256  -5.05013   0.44344 
 H                     5.86727  -3.41283   0.75551 
 H                     4.94728  -4.30387   2.00086 
 H                     2.78046  -5.84724  -1.56445 
 H                     4.76194  -1.9757    2.04655 
 H                    -0.70116   2.40711  -0.83832 
 H                    -3.5472    3.25793  -0.05249 
 H                    -1.18413   5.14865  -0.56186 
 H                    -1.17529   5.47923   2.02888 
 H                    -0.42375   1.45452   1.32565 
 H                    -2.13445   1.5252    1.71171 
 H                    -2.80255   2.85063  -2.34807 
 H                    -3.39354   5.74995  -0.69288 
 H                    -0.01184   0.82355   5.38957 
 H                     1.07762   2.20432   5.15027 
 H                    -0.56656   2.44649   5.84704 
 H                     0.03506   0.75539  -4.28011 
 

 GradGradGradGradGradGradGradGradGradGradGradGradGradGradGradGradGradGrad
 Berny optimization.
 Initialization pass.
                           ----------------------------
                           !    Initial Parameters    !
                           ! (Angstroms and Degrees)  !
 --------------------------                            --------------------------
 ! Name  Definition              Value          Derivative Info.                !
 --------------------------------------------------------------------------------
 ! R1    R(1,2)                  1.3978         estimate D2E/DX2                !
 ! R2    R(1,6)                  1.404          estimate D2E/DX2                !
 ! R3    R(1,15)                 1.5039         estimate D2E/DX2                !
 ! R4    R(2,3)                  1.397          estimate D2E/DX2                !
 ! R5    R(2,17)                 1.3673         estimate D2E/DX2                !
 ! R6    R(3,4)                  1.4013         estimate D2E/DX2                !
 ! R7    R(3,35)                 1.0868         estimate D2E/DX2                !
 ! R8    R(4,5)                  1.4008         estimate D2E/DX2                !
 ! R9    R(4,7)                  1.4734         estimate D2E/DX2                !
 ! R10   R(5,6)                  1.4128         estimate D2E/DX2                !
 ! R11   R(5,10)                 1.4801         estimate D2E/DX2                !
 ! R12   R(6,16)                 1.375          estimate D2E/DX2                !
 ! R13   R(7,8)                  1.3422         estimate D2E/DX2                !
 ! R14   R(7,11)                 1.5136         estimate D2E/DX2                !
 ! R15   R(8,9)                  1.4074         estimate D2E/DX2                !
 ! R16   R(8,14)                 1.5007         estimate D2E/DX2                !
 ! R17   R(9,10)                 1.3604         estimate D2E/DX2                !
 ! R18   R(10,18)                1.2283         estimate D2E/DX2                !
 ! R19   R(11,12)                1.5458         estimate D2E/DX2                !
 ! R20   R(11,36)                1.0973         estimate D2E/DX2                !
 ! R21   R(11,37)                1.0973         estimate D2E/DX2                !
 ! R22   R(12,13)                1.5399         estimate D2E/DX2                !
 ! R23   R(12,19)                1.4485         estimate D2E/DX2                !
 ! R24   R(12,32)                1.5421         estimate D2E/DX2                !
 ! R25   R(13,14)                1.5264         estimate D2E/DX2                !
 ! R26   R(13,38)                1.0981         estimate D2E/DX2                !
 ! R27   R(13,39)                1.0995         estimate D2E/DX2                !
 ! R28   R(14,40)                1.0968         estimate D2E/DX2                !
 ! R29   R(14,41)                1.0965         estimate D2E/DX2                !
 ! R30   R(15,42)                1.0937         estimate D2E/DX2                !
 ! R31   R(15,43)                1.0952         estimate D2E/DX2                !
 ! R32   R(15,44)                1.0949         estimate D2E/DX2                !
 ! R33   R(16,45)                0.9837         estimate D2E/DX2                !
 ! R34   R(17,46)                0.9706         estimate D2E/DX2                !
 ! R35   R(18,45)                1.7028         estimate D2E/DX2                !
 ! R36   R(19,20)                1.4441         estimate D2E/DX2                !
 ! R37   R(20,21)                1.5424         estimate D2E/DX2                !
 ! R38   R(20,25)                1.5429         estimate D2E/DX2                !
 ! R39   R(20,47)                1.097          estimate D2E/DX2                !
 ! R40   R(21,22)                1.5395         estimate D2E/DX2                !
 ! R41   R(21,26)                1.4377         estimate D2E/DX2                !
 ! R42   R(21,48)                1.0975         estimate D2E/DX2                !
 ! R43   R(22,23)                1.4906         estimate D2E/DX2                !
 ! R44   R(22,27)                1.4261         estimate D2E/DX2                !
 ! R45   R(22,49)                1.0967         estimate D2E/DX2                !
 ! R46   R(23,24)                1.3444         estimate D2E/DX2                !
 ! R47   R(23,50)                1.089          estimate D2E/DX2                !
 ! R48   R(24,25)                1.5026         estimate D2E/DX2                !
 ! R49   R(24,28)                1.4896         estimate D2E/DX2                !
 ! R50   R(25,51)                1.0958         estimate D2E/DX2                !
 ! R51   R(25,52)                1.098          estimate D2E/DX2                !
 ! R52   R(26,53)                0.9805         estimate D2E/DX2                !
 ! R53   R(27,54)                0.9771         estimate D2E/DX2                !
 ! R54   R(28,29)                1.3571         estimate D2E/DX2                !
 ! R55   R(28,30)                1.221          estimate D2E/DX2                !
 ! R56   R(29,31)                1.4283         estimate D2E/DX2                !
 ! R57   R(31,55)                1.0935         estimate D2E/DX2                !
 ! R58   R(31,56)                1.0945         estimate D2E/DX2                !
 ! R59   R(31,57)                1.0945         estimate D2E/DX2                !
 ! R60   R(32,33)                1.3441         estimate D2E/DX2                !
 ! R61   R(32,34)                1.2234         estimate D2E/DX2                !
 ! R62   R(33,58)                0.9819         estimate D2E/DX2                !
 ! R63   R(34,53)                1.8918         estimate D2E/DX2                !
 ! A1    A(2,1,6)              117.4466         estimate D2E/DX2                !
 ! A2    A(2,1,15)             121.284          estimate D2E/DX2                !
 ! A3    A(6,1,15)             121.2644         estimate D2E/DX2                !
 ! A4    A(1,2,3)              121.5675         estimate D2E/DX2                !
 ! A5    A(1,2,17)             123.0565         estimate D2E/DX2                !
 ! A6    A(3,2,17)             115.3759         estimate D2E/DX2                !
 ! A7    A(2,3,4)              121.1555         estimate D2E/DX2                !
 ! A8    A(2,3,35)             117.2739         estimate D2E/DX2                !
 ! A9    A(4,3,35)             121.5692         estimate D2E/DX2                !
 ! A10   A(3,4,5)              117.9978         estimate D2E/DX2                !
 ! A11   A(3,4,7)              122.2042         estimate D2E/DX2                !
 ! A12   A(5,4,7)              119.7963         estimate D2E/DX2                !
 ! A13   A(4,5,6)              120.5481         estimate D2E/DX2                !
 ! A14   A(4,5,10)             119.5848         estimate D2E/DX2                !
 ! A15   A(6,5,10)             119.8652         estimate D2E/DX2                !
 ! A16   A(1,6,5)              121.2733         estimate D2E/DX2                !
 ! A17   A(1,6,16)             116.8711         estimate D2E/DX2                !
 ! A18   A(5,6,16)             121.8555         estimate D2E/DX2                !
 ! A19   A(4,7,8)              117.812          estimate D2E/DX2                !
 ! A20   A(4,7,11)             120.4665         estimate D2E/DX2                !
 ! A21   A(8,7,11)             121.7212         estimate D2E/DX2                !
 ! A22   A(7,8,9)              123.0689         estimate D2E/DX2                !
 ! A23   A(7,8,14)             123.6581         estimate D2E/DX2                !
 ! A24   A(9,8,14)             113.2723         estimate D2E/DX2                !
 ! A25   A(8,9,10)             122.1477         estimate D2E/DX2                !
 ! A26   A(5,10,9)             117.5214         estimate D2E/DX2                !
 ! A27   A(5,10,18)            120.4129         estimate D2E/DX2                !
 ! A28   A(9,10,18)            122.0631         estimate D2E/DX2                !
 ! A29   A(7,11,12)            116.0742         estimate D2E/DX2                !
 ! A30   A(7,11,36)            109.7876         estimate D2E/DX2                !
 ! A31   A(7,11,37)            106.6966         estimate D2E/DX2                !
 ! A32   A(12,11,36)           108.2092         estimate D2E/DX2                !
 ! A33   A(12,11,37)           108.7089         estimate D2E/DX2                !
 ! A34   A(36,11,37)           107.0022         estimate D2E/DX2                !
 ! A35   A(11,12,13)           109.6795         estimate D2E/DX2                !
 ! A36   A(11,12,19)           111.4817         estimate D2E/DX2                !
 ! A37   A(11,12,32)           113.9235         estimate D2E/DX2                !
 ! A38   A(13,12,19)           104.369          estimate D2E/DX2                !
 ! A39   A(13,12,32)           107.5556         estimate D2E/DX2                !
 ! A40   A(19,12,32)           109.3256         estimate D2E/DX2                !
 ! A41   A(12,13,14)           113.1878         estimate D2E/DX2                !
 ! A42   A(12,13,38)           110.5864         estimate D2E/DX2                !
 ! A43   A(12,13,39)           108.9893         estimate D2E/DX2                !
 ! A44   A(14,13,38)           109.4032         estimate D2E/DX2                !
 ! A45   A(14,13,39)           109.1818         estimate D2E/DX2                !
 ! A46   A(38,13,39)           105.1725         estimate D2E/DX2                !
 ! A47   A(8,14,13)            113.1174         estimate D2E/DX2                !
 ! A48   A(8,14,40)            109.575          estimate D2E/DX2                !
 ! A49   A(8,14,41)            108.7816         estimate D2E/DX2                !
 ! A50   A(13,14,40)           108.4596         estimate D2E/DX2                !
 ! A51   A(13,14,41)           110.0811         estimate D2E/DX2                !
 ! A52   A(40,14,41)           106.6216         estimate D2E/DX2                !
 ! A53   A(1,15,42)            113.137          estimate D2E/DX2                !
 ! A54   A(1,15,43)            110.0925         estimate D2E/DX2                !
 ! A55   A(1,15,44)            109.9238         estimate D2E/DX2                !
 ! A56   A(42,15,43)           106.7442         estimate D2E/DX2                !
 ! A57   A(42,15,44)           107.5178         estimate D2E/DX2                !
 ! A58   A(43,15,44)           109.3033         estimate D2E/DX2                !
 ! A59   A(6,16,45)            109.4222         estimate D2E/DX2                !
 ! A60   A(2,17,46)            109.842          estimate D2E/DX2                !
 ! A61   A(12,19,20)           117.7414         estimate D2E/DX2                !
 ! A62   A(19,20,21)           107.5574         estimate D2E/DX2                !
 ! A63   A(19,20,25)           108.7193         estimate D2E/DX2                !
 ! A64   A(19,20,47)           110.548          estimate D2E/DX2                !
 ! A65   A(21,20,25)           110.1934         estimate D2E/DX2                !
 ! A66   A(21,20,47)           109.0884         estimate D2E/DX2                !
 ! A67   A(25,20,47)           110.6824         estimate D2E/DX2                !
 ! A68   A(20,21,22)           111.304          estimate D2E/DX2                !
 ! A69   A(20,21,26)           111.892          estimate D2E/DX2                !
 ! A70   A(20,21,48)           110.1333         estimate D2E/DX2                !
 ! A71   A(22,21,26)           106.8848         estimate D2E/DX2                !
 ! A72   A(22,21,48)           110.8305         estimate D2E/DX2                !
 ! A73   A(26,21,48)           105.6175         estimate D2E/DX2                !
 ! A74   A(21,22,23)           113.7894         estimate D2E/DX2                !
 ! A75   A(21,22,27)           108.975          estimate D2E/DX2                !
 ! A76   A(21,22,49)           110.3198         estimate D2E/DX2                !
 ! A77   A(23,22,27)           108.0744         estimate D2E/DX2                !
 ! A78   A(23,22,49)           108.8449         estimate D2E/DX2                !
 ! A79   A(27,22,49)           106.5646         estimate D2E/DX2                !
 ! A80   A(22,23,24)           122.9843         estimate D2E/DX2                !
 ! A81   A(22,23,50)           116.2327         estimate D2E/DX2                !
 ! A82   A(24,23,50)           120.7829         estimate D2E/DX2                !
 ! A83   A(23,24,25)           122.5537         estimate D2E/DX2                !
 ! A84   A(23,24,28)           117.9721         estimate D2E/DX2                !
 ! A85   A(25,24,28)           119.4633         estimate D2E/DX2                !
 ! A86   A(20,25,24)           115.0942         estimate D2E/DX2                !
 ! A87   A(20,25,51)           107.9387         estimate D2E/DX2                !
 ! A88   A(20,25,52)           109.3503         estimate D2E/DX2                !
 ! A89   A(24,25,51)           108.8705         estimate D2E/DX2                !
 ! A90   A(24,25,52)           108.957          estimate D2E/DX2                !
 ! A91   A(51,25,52)           106.2654         estimate D2E/DX2                !
 ! A92   A(21,26,53)           108.007          estimate D2E/DX2                !
 ! A93   A(22,27,54)           104.938          estimate D2E/DX2                !
 ! A94   A(24,28,29)           109.7786         estimate D2E/DX2                !
 ! A95   A(24,28,30)           124.5547         estimate D2E/DX2                !
 ! A96   A(29,28,30)           125.6657         estimate D2E/DX2                !
 ! A97   A(28,29,31)           113.8575         estimate D2E/DX2                !
 ! A98   A(29,31,55)           108.0191         estimate D2E/DX2                !
 ! A99   A(29,31,56)           110.5004         estimate D2E/DX2                !
 ! A100  A(29,31,57)           110.54           estimate D2E/DX2                !
 ! A101  A(55,31,56)           108.4345         estimate D2E/DX2                !
 ! A102  A(55,31,57)           108.4389         estimate D2E/DX2                !
 ! A103  A(56,31,57)           110.8152         estimate D2E/DX2                !
 ! A104  A(12,32,33)           115.2318         estimate D2E/DX2                !
 ! A105  A(12,32,34)           125.006          estimate D2E/DX2                !
 ! A106  A(33,32,34)           119.7551         estimate D2E/DX2                !
 ! A107  A(32,33,58)           104.8508         estimate D2E/DX2                !
 ! D1    D(6,1,2,3)             -0.9084         estimate D2E/DX2                !
 ! D2    D(6,1,2,17)           178.9646         estimate D2E/DX2                !
 ! D3    D(15,1,2,3)           179.8993         estimate D2E/DX2                !
 ! D4    D(15,1,2,17)           -0.2276         estimate D2E/DX2                !
 ! D5    D(2,1,6,5)              0.76           estimate D2E/DX2                !
 ! D6    D(2,1,6,16)          -179.0788         estimate D2E/DX2                !
 ! D7    D(15,1,6,5)           179.9524         estimate D2E/DX2                !
 ! D8    D(15,1,6,16)            0.1136         estimate D2E/DX2                !
 ! D9    D(2,1,15,42)         -175.0915         estimate D2E/DX2                !
 ! D10   D(2,1,15,43)          -55.7569         estimate D2E/DX2                !
 ! D11   D(2,1,15,44)           64.7065         estimate D2E/DX2                !
 ! D12   D(6,1,15,42)            5.7471         estimate D2E/DX2                !
 ! D13   D(6,1,15,43)          125.0817         estimate D2E/DX2                !
 ! D14   D(6,1,15,44)         -114.4548         estimate D2E/DX2                !
 ! D15   D(1,2,3,4)              0.1419         estimate D2E/DX2                !
 ! D16   D(1,2,3,35)           179.7216         estimate D2E/DX2                !
 ! D17   D(17,2,3,4)          -179.7403         estimate D2E/DX2                !
 ! D18   D(17,2,3,35)           -0.1606         estimate D2E/DX2                !
 ! D19   D(1,2,17,46)           -1.9788         estimate D2E/DX2                !
 ! D20   D(3,2,17,46)          177.9015         estimate D2E/DX2                !
 ! D21   D(2,3,4,5)              0.7845         estimate D2E/DX2                !
 ! D22   D(2,3,4,7)           -179.693          estimate D2E/DX2                !
 ! D23   D(35,3,4,5)          -178.7771         estimate D2E/DX2                !
 ! D24   D(35,3,4,7)             0.7455         estimate D2E/DX2                !
 ! D25   D(3,4,5,6)             -0.9236         estimate D2E/DX2                !
 ! D26   D(3,4,5,10)           178.5771         estimate D2E/DX2                !
 ! D27   D(7,4,5,6)            179.542          estimate D2E/DX2                !
 ! D28   D(7,4,5,10)            -0.9573         estimate D2E/DX2                !
 ! D29   D(3,4,7,8)           -177.0227         estimate D2E/DX2                !
 ! D30   D(3,4,7,11)             3.1844         estimate D2E/DX2                !
 ! D31   D(5,4,7,8)              2.4914         estimate D2E/DX2                !
 ! D32   D(5,4,7,11)          -177.3014         estimate D2E/DX2                !
 ! D33   D(4,5,6,1)              0.1545         estimate D2E/DX2                !
 ! D34   D(4,5,6,16)           179.9852         estimate D2E/DX2                !
 ! D35   D(10,5,6,1)          -179.3448         estimate D2E/DX2                !
 ! D36   D(10,5,6,16)            0.4858         estimate D2E/DX2                !
 ! D37   D(4,5,10,9)            -1.4077         estimate D2E/DX2                !
 ! D38   D(4,5,10,18)          179.1661         estimate D2E/DX2                !
 ! D39   D(6,5,10,9)           178.0965         estimate D2E/DX2                !
 ! D40   D(6,5,10,18)           -1.3297         estimate D2E/DX2                !
 ! D41   D(1,6,16,45)         -179.8588         estimate D2E/DX2                !
 ! D42   D(5,6,16,45)            0.3035         estimate D2E/DX2                !
 ! D43   D(4,7,8,9)             -1.6934         estimate D2E/DX2                !
 ! D44   D(4,7,8,14)           177.983          estimate D2E/DX2                !
 ! D45   D(11,7,8,9)           178.0967         estimate D2E/DX2                !
 ! D46   D(11,7,8,14)           -2.2269         estimate D2E/DX2                !
 ! D47   D(4,7,11,12)          169.7496         estimate D2E/DX2                !
 ! D48   D(4,7,11,36)           46.6719         estimate D2E/DX2                !
 ! D49   D(4,7,11,37)          -68.9451         estimate D2E/DX2                !
 ! D50   D(8,7,11,12)          -10.0351         estimate D2E/DX2                !
 ! D51   D(8,7,11,36)         -133.1128         estimate D2E/DX2                !
 ! D52   D(8,7,11,37)          111.2703         estimate D2E/DX2                !
 ! D53   D(7,8,9,10)            -0.7651         estimate D2E/DX2                !
 ! D54   D(14,8,9,10)          179.5281         estimate D2E/DX2                !
 ! D55   D(7,8,14,13)          -14.9633         estimate D2E/DX2                !
 ! D56   D(7,8,14,40)         -136.108          estimate D2E/DX2                !
 ! D57   D(7,8,14,41)          107.6862         estimate D2E/DX2                !
 ! D58   D(9,8,14,13)          164.7415         estimate D2E/DX2                !
 ! D59   D(9,8,14,40)           43.5969         estimate D2E/DX2                !
 ! D60   D(9,8,14,41)          -72.609          estimate D2E/DX2                !
 ! D61   D(8,9,10,5)             2.3169         estimate D2E/DX2                !
 ! D62   D(8,9,10,18)         -178.267          estimate D2E/DX2                !
 ! D63   D(7,11,12,13)          37.5649         estimate D2E/DX2                !
 ! D64   D(7,11,12,19)         152.6513         estimate D2E/DX2                !
 ! D65   D(7,11,12,32)         -83.0399         estimate D2E/DX2                !
 ! D66   D(36,11,12,13)        161.4641         estimate D2E/DX2                !
 ! D67   D(36,11,12,19)        -83.4495         estimate D2E/DX2                !
 ! D68   D(36,11,12,32)         40.8593         estimate D2E/DX2                !
 ! D69   D(37,11,12,13)        -82.6615         estimate D2E/DX2                !
 ! D70   D(37,11,12,19)         32.425          estimate D2E/DX2                !
 ! D71   D(37,11,12,32)        156.7338         estimate D2E/DX2                !
 ! D72   D(11,12,13,14)        -54.9211         estimate D2E/DX2                !
 ! D73   D(11,12,13,38)       -178.0792         estimate D2E/DX2                !
 ! D74   D(11,12,13,39)         66.7751         estimate D2E/DX2                !
 ! D75   D(19,12,13,14)       -174.4657         estimate D2E/DX2                !
 ! D76   D(19,12,13,38)         62.3762         estimate D2E/DX2                !
 ! D77   D(19,12,13,39)        -52.7695         estimate D2E/DX2                !
 ! D78   D(32,12,13,14)         69.4713         estimate D2E/DX2                !
 ! D79   D(32,12,13,38)        -53.6868         estimate D2E/DX2                !
 ! D80   D(32,12,13,39)       -168.8325         estimate D2E/DX2                !
 ! D81   D(11,12,19,20)         60.9874         estimate D2E/DX2                !
 ! D82   D(13,12,19,20)        179.3078         estimate D2E/DX2                !
 ! D83   D(32,12,19,20)        -65.8699         estimate D2E/DX2                !
 ! D84   D(11,12,32,33)         28.8237         estimate D2E/DX2                !
 ! D85   D(11,12,32,34)       -152.1581         estimate D2E/DX2                !
 ! D86   D(13,12,32,33)        -92.9629         estimate D2E/DX2                !
 ! D87   D(13,12,32,34)         86.0554         estimate D2E/DX2                !
 ! D88   D(19,12,32,33)        154.2829         estimate D2E/DX2                !
 ! D89   D(19,12,32,34)        -26.6989         estimate D2E/DX2                !
 ! D90   D(12,13,14,8)          44.1003         estimate D2E/DX2                !
 ! D91   D(12,13,14,40)        165.8733         estimate D2E/DX2                !
 ! D92   D(12,13,14,41)        -77.8236         estimate D2E/DX2                !
 ! D93   D(38,13,14,8)         167.9093         estimate D2E/DX2                !
 ! D94   D(38,13,14,40)        -70.3177         estimate D2E/DX2                !
 ! D95   D(38,13,14,41)         45.9854         estimate D2E/DX2                !
 ! D96   D(39,13,14,8)         -77.4878         estimate D2E/DX2                !
 ! D97   D(39,13,14,40)         44.2852         estimate D2E/DX2                !
 ! D98   D(39,13,14,41)        160.5883         estimate D2E/DX2                !
 ! D99   D(12,19,20,21)        136.5949         estimate D2E/DX2                !
 ! D100  D(12,19,20,25)       -104.0979         estimate D2E/DX2                !
 ! D101  D(12,19,20,47)         17.5884         estimate D2E/DX2                !
 ! D102  D(19,20,21,22)        174.6706         estimate D2E/DX2                !
 ! D103  D(19,20,21,26)        -65.8124         estimate D2E/DX2                !
 ! D104  D(19,20,21,48)         51.3385         estimate D2E/DX2                !
 ! D105  D(25,20,21,22)         56.3093         estimate D2E/DX2                !
 ! D106  D(25,20,21,26)        175.8263         estimate D2E/DX2                !
 ! D107  D(25,20,21,48)        -67.0228         estimate D2E/DX2                !
 ! D108  D(47,20,21,22)        -65.392          estimate D2E/DX2                !
 ! D109  D(47,20,21,26)         54.125          estimate D2E/DX2                !
 ! D110  D(47,20,21,48)        171.2759         estimate D2E/DX2                !
 ! D111  D(19,20,25,24)       -157.5474         estimate D2E/DX2                !
 ! D112  D(19,20,25,51)         80.6497         estimate D2E/DX2                !
 ! D113  D(19,20,25,52)        -34.5463         estimate D2E/DX2                !
 ! D114  D(21,20,25,24)        -39.9019         estimate D2E/DX2                !
 ! D115  D(21,20,25,51)       -161.7048         estimate D2E/DX2                !
 ! D116  D(21,20,25,52)         83.0992         estimate D2E/DX2                !
 ! D117  D(47,20,25,24)         80.8484         estimate D2E/DX2                !
 ! D118  D(47,20,25,51)        -40.9545         estimate D2E/DX2                !
 ! D119  D(47,20,25,52)       -156.1505         estimate D2E/DX2                !
 ! D120  D(20,21,22,23)        -44.5925         estimate D2E/DX2                !
 ! D121  D(20,21,22,27)       -165.2642         estimate D2E/DX2                !
 ! D122  D(20,21,22,49)         78.0685         estimate D2E/DX2                !
 ! D123  D(26,21,22,23)       -167.0452         estimate D2E/DX2                !
 ! D124  D(26,21,22,27)         72.2831         estimate D2E/DX2                !
 ! D125  D(26,21,22,49)        -44.3842         estimate D2E/DX2                !
 ! D126  D(48,21,22,23)         78.3407         estimate D2E/DX2                !
 ! D127  D(48,21,22,27)        -42.331          estimate D2E/DX2                !
 ! D128  D(48,21,22,49)       -158.9984         estimate D2E/DX2                !
 ! D129  D(20,21,26,53)         33.9885         estimate D2E/DX2                !
 ! D130  D(22,21,26,53)        156.0726         estimate D2E/DX2                !
 ! D131  D(48,21,26,53)        -85.8464         estimate D2E/DX2                !
 ! D132  D(21,22,23,24)         15.6872         estimate D2E/DX2                !
 ! D133  D(21,22,23,50)       -164.3829         estimate D2E/DX2                !
 ! D134  D(27,22,23,24)        136.8626         estimate D2E/DX2                !
 ! D135  D(27,22,23,50)        -43.2075         estimate D2E/DX2                !
 ! D136  D(49,22,23,24)       -107.7797         estimate D2E/DX2                !
 ! D137  D(49,22,23,50)         72.1501         estimate D2E/DX2                !
 ! D138  D(21,22,27,54)        -49.6511         estimate D2E/DX2                !
 ! D139  D(23,22,27,54)       -173.7698         estimate D2E/DX2                !
 ! D140  D(49,22,27,54)         69.3866         estimate D2E/DX2                !
 ! D141  D(22,23,24,25)          1.3818         estimate D2E/DX2                !
 ! D142  D(22,23,24,28)       -179.8297         estimate D2E/DX2                !
 ! D143  D(50,23,24,25)       -178.5449         estimate D2E/DX2                !
 ! D144  D(50,23,24,28)          0.2435         estimate D2E/DX2                !
 ! D145  D(23,24,25,20)         11.501          estimate D2E/DX2                !
 ! D146  D(23,24,25,51)        132.799          estimate D2E/DX2                !
 ! D147  D(23,24,25,52)       -111.7096         estimate D2E/DX2                !
 ! D148  D(28,24,25,20)       -167.27           estimate D2E/DX2                !
 ! D149  D(28,24,25,51)        -45.972          estimate D2E/DX2                !
 ! D150  D(28,24,25,52)         69.5194         estimate D2E/DX2                !
 ! D151  D(23,24,28,29)        169.9369         estimate D2E/DX2                !
 ! D152  D(23,24,28,30)        -10.4074         estimate D2E/DX2                !
 ! D153  D(25,24,28,29)        -11.236          estimate D2E/DX2                !
 ! D154  D(25,24,28,30)        168.4197         estimate D2E/DX2                !
 ! D155  D(24,28,29,31)       -179.7452         estimate D2E/DX2                !
 ! D156  D(30,28,29,31)          0.6039         estimate D2E/DX2                !
 ! D157  D(28,29,31,55)        179.6612         estimate D2E/DX2                !
 ! D158  D(28,29,31,56)        -61.8729         estimate D2E/DX2                !
 ! D159  D(28,29,31,57)         61.1673         estimate D2E/DX2                !
 ! D160  D(12,32,33,58)        178.6234         estimate D2E/DX2                !
 ! D161  D(34,32,33,58)         -0.4503         estimate D2E/DX2                !
 --------------------------------------------------------------------------------
 Trust Radius=3.00D-01 FncErr=1.00D-07 GrdErr=1.00D-06
 Number of steps in this run=    341 maximum allowed number of steps=    348.
 GradGradGradGradGradGradGradGradGradGradGradGradGradGradGradGradGradGrad

 Stoichiometry    C23H24O11
 Framework group  C1[X(C23H24O11)]
 Deg. of freedom   168
 Full point group                 C1      NOp   1
 Largest Abelian subgroup         C1      NOp   1
 Largest concise Abelian subgroup C1      NOp   1
                         Standard orientation:                         
 ---------------------------------------------------------------------
 Center     Atomic      Atomic             Coordinates (Angstroms)
 Number     Number       Type             X           Y           Z
 ---------------------------------------------------------------------
      1          6           0        4.585732    2.188125   -0.689002
      2          6           0        3.209013    2.413398   -0.776427
      3          6           0        2.283089    1.423134   -0.439487
      4          6           0        2.700424    0.161089    0.003914
      5          6           0        4.076714   -0.074547    0.116002
      6          6           0        5.007775    0.930421   -0.229310
      7          6           0        1.744284   -0.902180    0.358953
      8          6           0        2.238920   -2.056936    0.831521
      9          8           0        3.617931   -2.303303    0.967199
     10          6           0        4.555886   -1.384541    0.611094
     11          6           0        0.256321   -0.685330    0.185997
     12          6           0       -0.636412   -1.936239    0.352162
     13          6           0       -0.078680   -2.825409    1.478953
     14          6           0        1.384499   -3.208765    1.273597
     15          6           0        5.576986    3.258110   -1.055520
     16          8           0        6.364161    0.728317   -0.129416
     17          8           0        2.672393    3.601338   -1.189121
     18          8           0        5.759393   -1.612904    0.700949
     19          8           0       -1.967871   -1.582096    0.799389
     20          6           0       -2.756919   -0.723537   -0.052440
     21          6           0       -4.187889   -1.297499   -0.094175
     22          6           0       -5.138966   -0.372546   -0.875160
     23          6           0       -4.987919    1.070833   -0.534897
     24          6           0       -3.922860    1.559964    0.123713
     25          6           0       -2.769971    0.696258    0.551248
     26          8           0       -4.231719   -2.581841   -0.738768
     27          8           0       -6.485544   -0.753342   -0.600365
     28          6           0       -3.888670    3.021607    0.409127
     29          8           0       -2.869418    3.299443    1.260903
     30          8           0       -4.663383    3.837984   -0.064333
     31          6           0       -2.760027    4.682770    1.599153
     32          6           0       -0.738837   -2.804592   -0.918039
     33          8           0        0.330997   -2.759936   -1.730404
     34          8           0       -1.691487   -3.515694   -1.207133
     35          1           0        1.229712    1.675076   -0.528993
     36          1           0        0.056631   -0.250274   -0.801334
     37          1           0       -0.042214    0.061763    0.932150
     38          1           0       -0.682709   -3.736103    1.586980
     39          1           0       -0.182387   -2.295984    2.437007
     40          1           0        1.772877   -3.613985    2.215880
     41          1           0        1.462661   -4.011732    0.530987
     42          1           0        6.614297    2.913387   -1.019791
     43          1           0        5.394915    3.605322   -2.078181
     44          1           0        5.486478    4.102951   -0.364934
     45          1           0        6.535797   -0.183061    0.198553
     46          1           0        3.382065    4.238290   -1.369892
     47          1           0       -2.346697   -0.708245   -1.069774
     48          1           0       -4.557232   -1.465901    0.925445
     49          1           0       -4.992274   -0.499270   -1.954622
     50          1           0       -5.796924    1.727322   -0.851843
     51          1           0       -1.833318    1.190975    0.270584
     52          1           0       -2.764210    0.625766    1.646998
     53          1           0       -3.397210   -3.053305   -0.532164
     54          1           0       -6.507523   -1.720071   -0.740580
     55          1           0       -1.919117    4.796891    2.288801
     56          1           0       -2.558163    5.281174    0.705192
     57          1           0       -3.669050    5.028350    2.101435
     58          1           0        0.115019   -3.374600   -2.464984
 ---------------------------------------------------------------------
 Rotational constants (GHZ):      0.1685564      0.0721376      0.0545224
 Standard basis: 6-31G(d) (6D, 7F)
 There are   558 symmetry adapted basis functions of A   symmetry.
 Integral buffers will be    131072 words long.
 Raffenetti 2 integral format.
 Two-electron integral symmetry is turned on.
   558 basis functions,  1048 primitive gaussians,   558 cartesian basis functions
   125 alpha electrons      125 beta electrons
       nuclear repulsion energy      3689.5575156679 Hartrees.
 NAtoms=   58 NActive=   58 NUniq=   58 SFac= 1.00D+00 NAtFMM=   50 NAOKFM=T Big=T
 One-electron integrals computed using PRISM.
 NBasis=   558 RedAO= T  NBF=   558
 NBsUse=   558 1.00D-06 NBFU=   558
 Harris functional with IExCor=  402 diagonalized for initial guess.
 ExpMin= 1.61D-01 ExpMax= 5.48D+03 ExpMxC= 8.25D+02 IAcc=1 IRadAn=         1 AccDes= 0.00D+00
 HarFok:  IExCor=  402 AccDes= 0.00D+00 IRadAn=         1 IDoV= 1
 ScaDFX=  1.000000  1.000000  1.000000  1.000000
 FoFCou: FMM=F IPFlag=           0 FMFlag=      100000 FMFlg1=        2001
         NFxFlg=           0 DoJE=T BraDBF=F KetDBF=T FulRan=T
         Omega=  0.000000  0.000000  1.000000  0.000000  0.000000 ICntrl=     500 IOpCl=  0
         NMat0=    1 NMatS0=    1 NMatT0=    0 NMatD0=    1 NMtDS0=    0 NMtDT0=    0
         I1Cent=           4 NGrid=           0.
 Petite list used in FoFCou.
 Initial guess orbital symmetries:
       Occupied  (A) (A) (A) (A) (A) (A) (A) (A) (A) (A) (A) (A)
                 (A) (A) (A) (A) (A) (A) (A) (A) (A) (A) (A) (A)
                 (A) (A) (A) (A) (A) (A) (A) (A) (A) (A) (A) (A)
                 (A) (A) (A) (A) (A) (A) (A) (A) (A) (A) (A) (A)
                 (A) (A) (A) (A) (A) (A) (A) (A) (A) (A) (A) (A)
                 (A) (A) (A) (A) (A) (A) (A) (A) (A) (A) (A) (A)
                 (A) (A) (A) (A) (A) (A) (A) (A) (A) (A) (A) (A)
                 (A) (A) (A) (A) (A) (A) (A) (A) (A) (A) (A) (A)
                 (A) (A) (A) (A) (A) (A) (A) (A) (A) (A) (A) (A)
                 (A) (A) (A) (A) (A) (A) (A) (A) (A) (A) (A) (A)
                 (A) (A) (A) (A) (A)
       Virtual   (A) (A) (A) (A) (A) (A) (A) (A) (A) (A) (A) (A)
                 (A) (A) (A) (A) (A) (A) (A) (A) (A) (A) (A) (A)
                 (A) (A) (A) (A) (A) (A) (A) (A) (A) (A) (A) (A)
                 (A) (A) (A) (A) (A) (A) (A) (A) (A) (A) (A) (A)
                 (A) (A) (A) (A) (A) (A) (A) (A) (A) (A) (A) (A)
                 (A) (A) (A) (A) (A) (A) (A) (A) (A) (A) (A) (A)
                 (A) (A) (A) (A) (A) (A) (A) (A) (A) (A) (A) (A)
                 (A) (A) (A) (A) (A) (A) (A) (A) (A) (A) (A) (A)
                 (A) (A) (A) (A) (A) (A) (A) (A) (A) (A) (A) (A)
                 (A) (A) (A) (A) (A) (A) (A) (A) (A) (A) (A) (A)
                 (A) (A) (A) (A) (A) (A) (A) (A) (A) (A) (A) (A)
                 (A) (A) (A) (A) (A) (A) (A) (A) (A) (A) (A) (A)
                 (A) (A) (A) (A) (A) (A) (A) (A) (A) (A) (A) (A)
                 (A) (A) (A) (A) (A) (A) (A) (A) (A) (A) (A) (A)
                 (A) (A) (A) (A) (A) (A) (A) (A) (A) (A) (A) (A)
                 (A) (A) (A) (A) (A) (A) (A) (A) (A) (A) (A) (A)
                 (A) (A) (A) (A) (A) (A) (A) (A) (A) (A) (A) (A)
                 (A) (A) (A) (A) (A) (A) (A) (A) (A) (A) (A) (A)
                 (A) (A) (A) (A) (A) (A) (A) (A) (A) (A) (A) (A)
                 (A) (A) (A) (A) (A) (A) (A) (A) (A) (A) (A) (A)
                 (A) (A) (A) (A) (A) (A) (A) (A) (A) (A) (A) (A)
                 (A) (A) (A) (A) (A) (A) (A) (A) (A) (A) (A) (A)
                 (A) (A) (A) (A) (A) (A) (A) (A) (A) (A) (A) (A)
                 (A) (A) (A) (A) (A) (A) (A) (A) (A) (A) (A) (A)
                 (A) (A) (A) (A) (A) (A) (A) (A) (A) (A) (A) (A)
                 (A) (A) (A) (A) (A) (A) (A) (A) (A) (A) (A) (A)
                 (A) (A) (A) (A) (A) (A) (A) (A) (A) (A) (A) (A)
                 (A) (A) (A) (A) (A) (A) (A) (A) (A) (A) (A) (A)
                 (A) (A) (A) (A) (A) (A) (A) (A) (A) (A) (A) (A)
                 (A) (A) (A) (A) (A) (A) (A) (A) (A) (A) (A) (A)
                 (A) (A) (A) (A) (A) (A) (A) (A) (A) (A) (A) (A)
                 (A) (A) (A) (A) (A) (A) (A) (A) (A) (A) (A) (A)
                 (A) (A) (A) (A) (A) (A) (A) (A) (A) (A) (A) (A)
                 (A) (A) (A) (A) (A) (A) (A) (A) (A) (A) (A) (A)
                 (A) (A) (A) (A) (A) (A) (A) (A) (A) (A) (A) (A)
                 (A) (A) (A) (A) (A) (A) (A) (A) (A) (A) (A) (A)
                 (A)
 The electronic state of the initial guess is 1-A.
 Requested convergence on RMS density matrix=1.00D-08 within 128 cycles.
 Requested convergence on MAX density matrix=1.00D-06.
 Requested convergence on             energy=1.00D-06.
 No special actions if energy rises.
 Integral accuracy reduced to 1.0D-05 until final iterations.
 Initial convergence to 1.0D-05 achieved.  Increase integral accuracy.
 SCF Done:  E(RB3LYP) =  -1718.35731462     A.U. after   15 cycles
             Convg  =    0.3815D-08             -V/T =  2.0091

 **********************************************************************

            Population analysis using the SCF density.

 **********************************************************************

 Orbital symmetries:
       Occupied  (A) (A) (A) (A) (A) (A) (A) (A) (A) (A) (A) (A)
                 (A) (A) (A) (A) (A) (A) (A) (A) (A) (A) (A) (A)
                 (A) (A) (A) (A) (A) (A) (A) (A) (A) (A) (A) (A)
                 (A) (A) (A) (A) (A) (A) (A) (A) (A) (A) (A) (A)
                 (A) (A) (A) (A) (A) (A) (A) (A) (A) (A) (A) (A)
                 (A) (A) (A) (A) (A) (A) (A) (A) (A) (A) (A) (A)
                 (A) (A) (A) (A) (A) (A) (A) (A) (A) (A) (A) (A)
                 (A) (A) (A) (A) (A) (A) (A) (A) (A) (A) (A) (A)
                 (A) (A) (A) (A) (A) (A) (A) (A) (A) (A) (A) (A)
                 (A) (A) (A) (A) (A) (A) (A) (A) (A) (A) (A) (A)
                 (A) (A) (A) (A) (A)
       Virtual   (A) (A) (A) (A) (A) (A) (A) (A) (A) (A) (A) (A)
                 (A) (A) (A) (A) (A) (A) (A) (A) (A) (A) (A) (A)
                 (A) (A) (A) (A) (A) (A) (A) (A) (A) (A) (A) (A)
                 (A) (A) (A) (A) (A) (A) (A) (A) (A) (A) (A) (A)
                 (A) (A) (A) (A) (A) (A) (A) (A) (A) (A) (A) (A)
                 (A) (A) (A) (A) (A) (A) (A) (A) (A) (A) (A) (A)
                 (A) (A) (A) (A) (A) (A) (A) (A) (A) (A) (A) (A)
                 (A) (A) (A) (A) (A) (A) (A) (A) (A) (A) (A) (A)
                 (A) (A) (A) (A) (A) (A) (A) (A) (A) (A) (A) (A)
                 (A) (A) (A) (A) (A) (A) (A) (A) (A) (A) (A) (A)
                 (A) (A) (A) (A) (A) (A) (A) (A) (A) (A) (A) (A)
                 (A) (A) (A) (A) (A) (A) (A) (A) (A) (A) (A) (A)
                 (A) (A) (A) (A) (A) (A) (A) (A) (A) (A) (A) (A)
                 (A) (A) (A) (A) (A) (A) (A) (A) (A) (A) (A) (A)
                 (A) (A) (A) (A) (A) (A) (A) (A) (A) (A) (A) (A)
                 (A) (A) (A) (A) (A) (A) (A) (A) (A) (A) (A) (A)
                 (A) (A) (A) (A) (A) (A) (A) (A) (A) (A) (A) (A)
                 (A) (A) (A) (A) (A) (A) (A) (A) (A) (A) (A) (A)
                 (A) (A) (A) (A) (A) (A) (A) (A) (A) (A) (A) (A)
                 (A) (A) (A) (A) (A) (A) (A) (A) (A) (A) (A) (A)
                 (A) (A) (A) (A) (A) (A) (A) (A) (A) (A) (A) (A)
                 (A) (A) (A) (A) (A) (A) (A) (A) (A) (A) (A) (A)
                 (A) (A) (A) (A) (A) (A) (A) (A) (A) (A) (A) (A)
                 (A) (A) (A) (A) (A) (A) (A) (A) (A) (A) (A) (A)
                 (A) (A) (A) (A) (A) (A) (A) (A) (A) (A) (A) (A)
                 (A) (A) (A) (A) (A) (A) (A) (A) (A) (A) (A) (A)
                 (A) (A) (A) (A) (A) (A) (A) (A) (A) (A) (A) (A)
                 (A) (A) (A) (A) (A) (A) (A) (A) (A) (A) (A) (A)
                 (A) (A) (A) (A) (A) (A) (A) (A) (A) (A) (A) (A)
                 (A) (A) (A) (A) (A) (A) (A) (A) (A) (A) (A) (A)
                 (A) (A) (A) (A) (A) (A) (A) (A) (A) (A) (A) (A)
                 (A) (A) (A) (A) (A) (A) (A) (A) (A) (A) (A) (A)
                 (A) (A) (A) (A) (A) (A) (A) (A) (A) (A) (A) (A)
                 (A) (A) (A) (A) (A) (A) (A) (A) (A) (A) (A) (A)
                 (A) (A) (A) (A) (A) (A) (A) (A) (A) (A) (A) (A)
                 (A) (A) (A) (A) (A) (A) (A) (A) (A) (A) (A) (A)
                 (A)
 The electronic state is 1-A.
 Alpha  occ. eigenvalues --  -19.23383 -19.22967 -19.20023 -19.19860 -19.17906
 Alpha  occ. eigenvalues --  -19.17682 -19.16924 -19.14811 -19.13699 -19.13578
 Alpha  occ. eigenvalues --  -19.12820 -10.35548 -10.33625 -10.31682 -10.29480
 Alpha  occ. eigenvalues --  -10.27817 -10.27132 -10.27027 -10.25685 -10.24362
 Alpha  occ. eigenvalues --  -10.23936 -10.23525 -10.22681 -10.22496 -10.22352
 Alpha  occ. eigenvalues --  -10.22204 -10.22092 -10.20995 -10.20874 -10.20749
 Alpha  occ. eigenvalues --  -10.20180 -10.20090 -10.19989 -10.19545  -1.14524
 Alpha  occ. eigenvalues --   -1.12502  -1.10405  -1.07820  -1.06014  -1.05711
 Alpha  occ. eigenvalues --   -1.04132  -1.03030  -1.01977  -1.01417  -0.99285
 Alpha  occ. eigenvalues --   -0.88517  -0.86661  -0.84301  -0.81428  -0.79297
 Alpha  occ. eigenvalues --   -0.77759  -0.76295  -0.75694  -0.74550  -0.71665
 Alpha  occ. eigenvalues --   -0.71260  -0.69825  -0.66917  -0.66159  -0.65256
 Alpha  occ. eigenvalues --   -0.63644  -0.62130  -0.61755  -0.59682  -0.58480
 Alpha  occ. eigenvalues --   -0.57492  -0.55399  -0.54943  -0.54220  -0.53170
 Alpha  occ. eigenvalues --   -0.52782  -0.51433  -0.50922  -0.50431  -0.50160
 Alpha  occ. eigenvalues --   -0.49445  -0.48795  -0.48450  -0.48216  -0.47737
 Alpha  occ. eigenvalues --   -0.47084  -0.46445  -0.46042  -0.45796  -0.45243
 Alpha  occ. eigenvalues --   -0.44823  -0.44389  -0.44076  -0.43344  -0.43086
 Alpha  occ. eigenvalues --   -0.42922  -0.42238  -0.41922  -0.41333  -0.40988
 Alpha  occ. eigenvalues --   -0.40709  -0.40032  -0.39897  -0.39555  -0.39259
 Alpha  occ. eigenvalues --   -0.39063  -0.38220  -0.37950  -0.37795  -0.37659
 Alpha  occ. eigenvalues --   -0.36086  -0.35882  -0.35519  -0.35366  -0.34826
 Alpha  occ. eigenvalues --   -0.34091  -0.34019  -0.33502  -0.32519  -0.30695
 Alpha  occ. eigenvalues --   -0.30449  -0.29491  -0.28489  -0.27389  -0.27214
 Alpha  occ. eigenvalues --   -0.27098  -0.25780  -0.25010  -0.23840  -0.22369
 Alpha virt. eigenvalues --   -0.04636  -0.04193  -0.03745  -0.03177   0.03222
 Alpha virt. eigenvalues --    0.04303   0.05146   0.05687   0.06214   0.07214
 Alpha virt. eigenvalues --    0.07555   0.08700   0.10092   0.10452   0.11014
 Alpha virt. eigenvalues --    0.11539   0.11944   0.12126   0.12189   0.12885
 Alpha virt. eigenvalues --    0.13244   0.13919   0.14230   0.14806   0.15248
 Alpha virt. eigenvalues --    0.15573   0.15806   0.16484   0.16772   0.17168
 Alpha virt. eigenvalues --    0.17409   0.17726   0.17774   0.18170   0.18857
 Alpha virt. eigenvalues --    0.19038   0.19741   0.19993   0.20385   0.20646
 Alpha virt. eigenvalues --    0.22085   0.22324   0.23217   0.23385   0.23983
 Alpha virt. eigenvalues --    0.24420   0.25165   0.26516   0.26552   0.27318
 Alpha virt. eigenvalues --    0.28150   0.28529   0.29907   0.31704   0.32088
 Alpha virt. eigenvalues --    0.32967   0.33227   0.34177   0.36448   0.38337
 Alpha virt. eigenvalues --    0.38792   0.39839   0.40861   0.41436   0.42467
 Alpha virt. eigenvalues --    0.42787   0.44954   0.46571   0.46713   0.48897
 Alpha virt. eigenvalues --    0.50148   0.50325   0.51089   0.51607   0.51656
 Alpha virt. eigenvalues --    0.51790   0.52371   0.52560   0.53611   0.54018
 Alpha virt. eigenvalues --    0.54739   0.54915   0.55508   0.55788   0.56401
 Alpha virt. eigenvalues --    0.56978   0.57338   0.57752   0.58246   0.58661
 Alpha virt. eigenvalues --    0.59140   0.59556   0.60148   0.61069   0.61461
 Alpha virt. eigenvalues --    0.62219   0.62623   0.62806   0.63773   0.64184
 Alpha virt. eigenvalues --    0.64407   0.64807   0.65088   0.65941   0.66882
 Alpha virt. eigenvalues --    0.67338   0.67397   0.68650   0.69415   0.69707
 Alpha virt. eigenvalues --    0.70359   0.71368   0.72174   0.72242   0.72528
 Alpha virt. eigenvalues --    0.73537   0.73777   0.74541   0.74815   0.75249
 Alpha virt. eigenvalues --    0.75626   0.76091   0.76695   0.77602   0.78005
 Alpha virt. eigenvalues --    0.78837   0.79727   0.81162   0.81317   0.82071
 Alpha virt. eigenvalues --    0.82610   0.83013   0.83800   0.84470   0.84734
 Alpha virt. eigenvalues --    0.84768   0.85287   0.85920   0.86244   0.86621
 Alpha virt. eigenvalues --    0.86962   0.88181   0.88756   0.89291   0.89709
 Alpha virt. eigenvalues --    0.90016   0.90408   0.90912   0.91748   0.92297
 Alpha virt. eigenvalues --    0.92587   0.92686   0.93198   0.93890   0.94650
 Alpha virt. eigenvalues --    0.95293   0.95916   0.96622   0.96677   0.97636
 Alpha virt. eigenvalues --    0.97856   0.98134   0.98752   0.99543   1.00230
 Alpha virt. eigenvalues --    1.00299   1.01043   1.01970   1.02434   1.03158
 Alpha virt. eigenvalues --    1.03917   1.04657   1.05334   1.06285   1.06872
 Alpha virt. eigenvalues --    1.07524   1.08411   1.09749   1.10375   1.11511
 Alpha virt. eigenvalues --    1.11849   1.12952   1.13990   1.14639   1.15899
 Alpha virt. eigenvalues --    1.16915   1.17432   1.18716   1.19900   1.20661
 Alpha virt. eigenvalues --    1.22083   1.22375   1.23175   1.23329   1.24316
 Alpha virt. eigenvalues --    1.24650   1.25677   1.26366   1.28564   1.29580
 Alpha virt. eigenvalues --    1.30169   1.30547   1.31062   1.33008   1.33543
 Alpha virt. eigenvalues --    1.34707   1.35123   1.35616   1.36840   1.37784
 Alpha virt. eigenvalues --    1.37954   1.38090   1.38918   1.39605   1.40593
 Alpha virt. eigenvalues --    1.42024   1.42548   1.42914   1.43524   1.44489
 Alpha virt. eigenvalues --    1.44566   1.45676   1.46325   1.48487   1.49778
 Alpha virt. eigenvalues --    1.50704   1.52614   1.53966   1.55894   1.57082
 Alpha virt. eigenvalues --    1.60513   1.60831   1.61394   1.63004   1.63009
 Alpha virt. eigenvalues --    1.65415   1.65838   1.66595   1.66888   1.68659
 Alpha virt. eigenvalues --    1.69123   1.69858   1.70323   1.70675   1.71054
 Alpha virt. eigenvalues --    1.71869   1.72833   1.72910   1.73688   1.73984
 Alpha virt. eigenvalues --    1.74194   1.75128   1.75717   1.76710   1.77690
 Alpha virt. eigenvalues --    1.77986   1.78446   1.79190   1.79816   1.80505
 Alpha virt. eigenvalues --    1.80528   1.80948   1.82848   1.82965   1.83433
 Alpha virt. eigenvalues --    1.83693   1.84566   1.85376   1.86102   1.86581
 Alpha virt. eigenvalues --    1.87012   1.87212   1.87865   1.88175   1.89644
 Alpha virt. eigenvalues --    1.90087   1.90907   1.91333   1.92091   1.92971
 Alpha virt. eigenvalues --    1.93446   1.93780   1.93911   1.94460   1.96073
 Alpha virt. eigenvalues --    1.97020   1.97254   1.98312   1.98971   1.99405
 Alpha virt. eigenvalues --    1.99884   2.00461   2.01797   2.03259   2.03385
 Alpha virt. eigenvalues --    2.04028   2.04473   2.05411   2.05595   2.06159
 Alpha virt. eigenvalues --    2.07165   2.08902   2.09613   2.10610   2.12157
 Alpha virt. eigenvalues --    2.13014   2.13494   2.13792   2.14138   2.15134
 Alpha virt. eigenvalues --    2.17838   2.18800   2.20621   2.21710   2.22669
 Alpha virt. eigenvalues --    2.24173   2.25546   2.25916   2.26207   2.26805
 Alpha virt. eigenvalues --    2.27358   2.28363   2.29114   2.29953   2.29986
 Alpha virt. eigenvalues --    2.30450   2.31340   2.32425   2.33717   2.34233
 Alpha virt. eigenvalues --    2.34699   2.35126   2.35640   2.36589   2.38800
 Alpha virt. eigenvalues --    2.38925   2.41186   2.41591   2.42548   2.42628
 Alpha virt. eigenvalues --    2.43630   2.44894   2.45509   2.46707   2.47717
 Alpha virt. eigenvalues --    2.48151   2.49008   2.50691   2.51840   2.52961
 Alpha virt. eigenvalues --    2.53576   2.55048   2.55613   2.57175   2.58032
 Alpha virt. eigenvalues --    2.58846   2.59974   2.60559   2.62320   2.64428
 Alpha virt. eigenvalues --    2.65591   2.66111   2.67284   2.68227   2.69775
 Alpha virt. eigenvalues --    2.70436   2.70636   2.72207   2.74096   2.75022
 Alpha virt. eigenvalues --    2.76111   2.76691   2.77659   2.78141   2.81190
 Alpha virt. eigenvalues --    2.81510   2.84495   2.85646   2.86369   2.90302
 Alpha virt. eigenvalues --    2.90989   2.93827   2.94511   2.95719   2.97829
 Alpha virt. eigenvalues --    3.00104   3.00553   3.01463   3.03896   3.05245
 Alpha virt. eigenvalues --    3.07098   3.10758   3.12560   3.15936   3.17966
 Alpha virt. eigenvalues --    3.22591   3.23106   3.40851   3.49373   3.78720
 Alpha virt. eigenvalues --    3.86702   3.96082   3.96274   3.97686   3.98743
 Alpha virt. eigenvalues --    4.04496   4.07739   4.09114   4.14060   4.16760
 Alpha virt. eigenvalues --    4.19773   4.21278   4.22988   4.23829   4.24893
 Alpha virt. eigenvalues --    4.25979   4.32846   4.34374   4.35664   4.36899
 Alpha virt. eigenvalues --    4.39106   4.42459   4.44410   4.49697   4.53281
 Alpha virt. eigenvalues --    4.54777   4.58548   4.58829   4.63623   4.72477
 Alpha virt. eigenvalues --    4.73639   4.78725   4.87341
          Condensed to atoms (all electrons):
 Mulliken atomic charges:
              1
     1  C    0.118333
     2  C    0.294576
     3  C   -0.272355
     4  C    0.125152
     5  C   -0.065195
     6  C    0.229647
     7  C    0.087636
     8  C    0.284712
     9  O   -0.515076
    10  C    0.636937
    11  C   -0.387007
    12  C    0.262615
    13  C   -0.309595
    14  C   -0.363320
    15  C   -0.575264
    16  O   -0.671327
    17  O   -0.642416
    18  O   -0.534471
    19  O   -0.543124
    20  C    0.090078
    21  C    0.115376
    22  C    0.105009
    23  C   -0.135158
    24  C    0.051513
    25  C   -0.349541
    26  O   -0.695525
    27  O   -0.643776
    28  C    0.600084
    29  O   -0.461916
    30  O   -0.490087
    31  C   -0.221642
    32  C    0.594456
    33  O   -0.554720
    34  O   -0.482518
    35  H    0.137771
    36  H    0.172216
    37  H    0.192146
    38  H    0.174995
    39  H    0.176586
    40  H    0.181639
    41  H    0.176217
    42  H    0.209491
    43  H    0.158223
    44  H    0.163697
    45  H    0.450620
    46  H    0.420094
    47  H    0.135821
    48  H    0.140242
    49  H    0.144094
    50  H    0.180226
    51  H    0.157135
    52  H    0.176287
    53  H    0.432190
    54  H    0.407524
    55  H    0.162885
    56  H    0.171700
    57  H    0.173237
    58  H    0.422873
 Sum of Mulliken atomic charges =   0.00000
 Mulliken charges with hydrogens summed into heavy atoms:
              1
     1  C    0.118333
     2  C    0.294576
     3  C   -0.134584
     4  C    0.125152
     5  C   -0.065195
     6  C    0.229647
     7  C    0.087636
     8  C    0.284712
     9  O   -0.515076
    10  C    0.636937
    11  C   -0.022645
    12  C    0.262615
    13  C    0.041986
    14  C   -0.005464
    15  C   -0.043853
    16  O   -0.220707
    17  O   -0.222322
    18  O   -0.534471
    19  O   -0.543124
    20  C    0.225898
    21  C    0.255618
    22  C    0.249103
    23  C    0.045068
    24  C    0.051513
    25  C   -0.016119
    26  O   -0.263335
    27  O   -0.236253
    28  C    0.600084
    29  O   -0.461916
    30  O   -0.490087
    31  C    0.286180
    32  C    0.594456
    33  O   -0.131847
    34  O   -0.482518
 Sum of Mulliken charges with hydrogens summed into heavy atoms =   0.00000
 Electronic spatial extent (au):  <R**2>=          18733.8102
 Charge=              0.0000 electrons
 Dipole moment (field-independent basis, Debye):
    X=              3.2113    Y=              0.8943    Z=             -0.0593  Tot=              3.3340
 Quadrupole moment (field-independent basis, Debye-Ang):
   XX=           -249.9397   YY=           -180.1069   ZZ=           -185.0290
   XY=             18.4303   XZ=            -10.7639   YZ=              3.8944
 Traceless Quadrupole moment (field-independent basis, Debye-Ang):
   XX=            -44.9145   YY=             24.9183   ZZ=             19.9962
   XY=             18.4303   XZ=            -10.7639   YZ=              3.8944
 Octapole moment (field-independent basis, Debye-Ang**2):
  XXX=             54.2285  YYY=             39.9003  ZZZ=            -15.5608  XYY=             85.5578
  XXY=             45.6513  XXZ=            -20.9539  XZZ=            -11.2117  YZZ=            -10.4475
  YYZ=             10.1971  XYZ=            -20.2029
 Hexadecapole moment (field-independent basis, Debye-Ang**3):
 XXXX=         -18338.2925 YYYY=          -6016.0868 ZZZZ=          -1011.2986 XXXY=            826.4024
 XXXZ=           -226.3000 YYYX=            307.1941 YYYZ=            130.1831 ZZZX=              6.9829
 ZZZY=             92.5863 XXYY=          -3936.0232 XXZZ=          -2826.0853 YYZZ=          -1105.4724
 XXYZ=             23.8191 YYXZ=           -248.7300 ZZXY=            -32.0038
 N-N= 3.689557515668D+03 E-N=-1.139202045477D+04  KE= 1.702877844755D+03
 Calling FoFJK, ICntrl=      2127 FMM=T ISym2X=0 I1Cent= 0 IOpClX= 0 NMat=1 NMatS=1 NMatT=0.
 ***** Axes restored to original set *****
 -------------------------------------------------------------------
 Center     Atomic                   Forces (Hartrees/Bohr)
 Number     Number              X              Y              Z
 -------------------------------------------------------------------
      1        6          -0.000024601   -0.007499365   -0.004663160
      2        6          -0.004615908    0.005576724    0.000884834
      3        6          -0.006778455    0.006507535   -0.001595659
      4        6           0.001353236    0.019982570    0.012018405
      5        6          -0.017145163   -0.011809053   -0.017650084
      6        6           0.009439996   -0.023021277   -0.006589702
      7        6           0.014153932   -0.008005289   -0.001722914
      8        6          -0.001054352   -0.009343591   -0.001888723
      9        8          -0.008982461    0.008659836   -0.000980999
     10        6           0.030897054    0.008052020    0.023924245
     11        6           0.003853233   -0.000795466    0.001066391
     12        6          -0.012132205    0.001867088    0.010757850
     13        6          -0.007963987   -0.003193710    0.001516024
     14        6           0.002524259   -0.007353667   -0.006403133
     15        6           0.000877182    0.000150638   -0.000663109
     16        8           0.002786948    0.018890647    0.012469037
     17        8           0.000547314   -0.004483255   -0.002236524
     18        8          -0.021751833   -0.000194969   -0.013715433
     19        8           0.011468758   -0.006708879   -0.014890614
     20        6          -0.011265334    0.006461056    0.011298194
     21        6           0.006709736   -0.005086678   -0.021315141
     22        6          -0.012363660    0.002094374   -0.002688062
     23        6          -0.000292933   -0.003795476    0.004412119
     24        6           0.002288660    0.012461207   -0.004964804
     25        6           0.002917944   -0.006771744   -0.001265433
     26        8           0.004270385    0.000776383    0.007040049
     27        8          -0.006101270    0.003043341   -0.002676221
     28        6           0.000024240    0.009560364   -0.008031569
     29        8           0.003150390    0.004698832    0.006333236
     30        8          -0.003463128   -0.015124958    0.000933587
     31        6           0.003032113   -0.005909542    0.009127470
     32        6          -0.002681533    0.015203330   -0.008487163
     33        8           0.001307572   -0.002740138    0.000845577
     34        8           0.000389326   -0.011361304    0.008626715
     35        1           0.000714057   -0.001733287   -0.000894867
     36        1           0.001528018   -0.002827171    0.001775158
     37        1          -0.002777167    0.004181440   -0.001741685
     38        1           0.003311245    0.002214625    0.000582926
     39        1           0.005278524    0.004049466    0.001278317
     40        1           0.001467548   -0.001029127   -0.001787375
     41        1          -0.000214692   -0.001897972   -0.002527999
     42        1          -0.004439350    0.002042022   -0.000504261
     43        1           0.003483636    0.000999850    0.002680205
     44        1           0.003637090   -0.000545325    0.003208650
     45        1          -0.006077088    0.006087285   -0.000877447
     46        1          -0.000355928   -0.000365959   -0.000869377
     47        1          -0.000463090    0.001405449   -0.000352808
     48        1           0.004097841   -0.000459145    0.012038575
     49        1           0.005539529   -0.006628055   -0.005148354
     50        1          -0.000570101   -0.002531607    0.000745385
     51        1          -0.001456649   -0.001083748    0.003307074
     52        1           0.000005140   -0.001501618   -0.002975022
     53        1          -0.000070899    0.004849458    0.001555539
     54        1           0.002179258    0.001441787    0.003794774
     55        1          -0.002195680   -0.000232312   -0.005118185
     56        1          -0.001892293    0.003234768    0.001295474
     57        1           0.002951915    0.002472705   -0.000879620
     58        1           0.000943681   -0.002931113    0.002589638
 -------------------------------------------------------------------
 Cartesian Forces:  Max     0.030897054 RMS     0.007406944

 GradGradGradGradGradGradGradGradGradGradGradGradGradGradGradGradGradGrad
 Berny optimization.
 Internal  Forces:  Max     0.027910072 RMS     0.004493495
 Search for a local minimum.
 Step number   1 out of a maximum of  341
 All quantities printed in internal units (Hartrees-Bohrs-Radians)
 Mixed Optimization -- RFO/linear search
 Second derivative matrix not updated -- first step.
 ITU=  0
     Eigenvalues ---    0.00241   0.00439   0.00485   0.00539   0.00584
     Eigenvalues ---    0.00714   0.00739   0.00903   0.01050   0.01176
     Eigenvalues ---    0.01188   0.01228   0.01294   0.01311   0.01318
     Eigenvalues ---    0.01346   0.01364   0.01366   0.01422   0.01510
     Eigenvalues ---    0.01645   0.01721   0.01758   0.01803   0.01906
     Eigenvalues ---    0.01980   0.02023   0.02032   0.02097   0.02107
     Eigenvalues ---    0.02123   0.02124   0.02260   0.02432   0.02742
     Eigenvalues ---    0.02972   0.03207   0.03303   0.03696   0.03972
     Eigenvalues ---    0.04286   0.04697   0.04811   0.04825   0.05181
     Eigenvalues ---    0.05184   0.05332   0.05661   0.05734   0.05801
     Eigenvalues ---    0.05936   0.06347   0.06907   0.07058   0.07212
     Eigenvalues ---    0.07328   0.08011   0.08221   0.08245   0.08470
     Eigenvalues ---    0.09447   0.09512   0.09765   0.09854   0.10107
     Eigenvalues ---    0.10204   0.10500   0.11496   0.11968   0.14543
     Eigenvalues ---    0.14637   0.15727   0.16000   0.16000   0.16000
     Eigenvalues ---    0.16000   0.16000   0.16000   0.16000   0.16000
     Eigenvalues ---    0.16000   0.16000   0.16000   0.16078   0.16716
     Eigenvalues ---    0.16735   0.18683   0.19452   0.20103   0.22031
     Eigenvalues ---    0.23075   0.23526   0.24380   0.24989   0.24994
     Eigenvalues ---    0.24995   0.24997   0.24998   0.24999   0.24999
     Eigenvalues ---    0.24999   0.25000   0.25000   0.25000   0.25000
     Eigenvalues ---    0.25000   0.25000   0.26863   0.27443   0.27474
     Eigenvalues ---    0.27513   0.27874   0.28292   0.28881   0.30596
     Eigenvalues ---    0.31426   0.31677   0.31969   0.32669   0.32698
     Eigenvalues ---    0.33489   0.33737   0.33890   0.33901   0.33966
     Eigenvalues ---    0.33985   0.33987   0.34012   0.34040   0.34046
     Eigenvalues ---    0.34071   0.34148   0.34215   0.34250   0.34292
     Eigenvalues ---    0.34294   0.34391   0.34410   0.34634   0.34929
     Eigenvalues ---    0.35187   0.37190   0.38372   0.38963   0.39833
     Eigenvalues ---    0.40832   0.41238   0.41553   0.43251   0.44382
     Eigenvalues ---    0.45195   0.45458   0.45941   0.49738   0.50226
     Eigenvalues ---    0.50325   0.50740   0.51024   0.51501   0.51954
     Eigenvalues ---    0.52737   0.53259   0.53548   0.53973   0.56306
     Eigenvalues ---    0.91593   0.93145   0.94946
 RFO step:  Lambda=-2.52048184D-02 EMin= 2.40504981D-03
 Linear search not attempted -- first point.
 Iteration  1 RMS(Cart)=  0.10081035 RMS(Int)=  0.00200801
 Iteration  2 RMS(Cart)=  0.00446055 RMS(Int)=  0.00035040
 Iteration  3 RMS(Cart)=  0.00000832 RMS(Int)=  0.00035036
 Iteration  4 RMS(Cart)=  0.00000002 RMS(Int)=  0.00035036
 Variable       Old X    -DE/DX   Delta X   Delta X   Delta X     New X
                                 (Linear)    (Quad)   (Total)
    R1        2.64139   0.00567   0.00000   0.01068   0.01098   2.65237
    R2        2.65320  -0.00152   0.00000  -0.00342  -0.00352   2.64968
    R3        2.84200   0.00366   0.00000   0.01061   0.01061   2.85261
    R4        2.63986   0.00175   0.00000   0.00284   0.00322   2.64309
    R5        2.58380  -0.00470   0.00000  -0.00870  -0.00870   2.57510
    R6        2.64800  -0.00517   0.00000  -0.01056  -0.01047   2.63753
    R7        2.05372  -0.00206   0.00000  -0.00546  -0.00546   2.04825
    R8        2.64714   0.01167   0.00000   0.02716   0.02654   2.67368
    R9        2.78425  -0.00970   0.00000  -0.02435  -0.02427   2.75998
   R10        2.66985   0.00135   0.00000   0.00507   0.00364   2.67349
   R11        2.79705  -0.01025   0.00000  -0.02542  -0.02665   2.77040
   R12        2.59836  -0.02791   0.00000  -0.05274  -0.05298   2.54538
   R13        2.53635   0.00371   0.00000   0.00672   0.00713   2.54348
   R14        2.86028  -0.00079   0.00000  -0.00156  -0.00154   2.85874
   R15        2.65960  -0.02012   0.00000  -0.04474  -0.04441   2.61519
   R16        2.83596  -0.00461   0.00000  -0.01195  -0.01198   2.82398
   R17        2.57079  -0.00249   0.00000  -0.00544  -0.00550   2.56529
   R18        2.32110  -0.00115   0.00000  -0.00140  -0.00129   2.31981
   R19        2.92105   0.00081   0.00000   0.00053   0.00056   2.92162
   R20        2.07351  -0.00076   0.00000  -0.00207  -0.00207   2.07144
   R21        2.07355  -0.00117   0.00000  -0.00322  -0.00322   2.07034
   R22        2.91002  -0.00004   0.00000  -0.00041  -0.00044   2.90959
   R23        2.73731  -0.01243   0.00000  -0.03035  -0.03083   2.70648
   R24        2.91406  -0.00434   0.00000  -0.01408  -0.01424   2.89982
   R25        2.88456   0.00527   0.00000   0.01450   0.01450   2.89906
   R26        2.07516  -0.00204   0.00000  -0.00561  -0.00561   2.06955
   R27        2.07777  -0.00235   0.00000  -0.00649  -0.00649   2.07128
   R28        2.07262  -0.00023   0.00000  -0.00062  -0.00062   2.07201
   R29        2.07210   0.00201   0.00000   0.00549   0.00549   2.07760
   R30        2.06675  -0.00265   0.00000  -0.00717  -0.00717   2.05958
   R31        2.06970   0.00285   0.00000   0.00775   0.00775   2.07745
   R32        2.06911   0.00294   0.00000   0.00799   0.00799   2.07710
   R33        1.85889   0.00475   0.00000   0.00797   0.00897   1.86786
   R34        1.83413  -0.00039   0.00000  -0.00070  -0.00070   1.83343
   R35        3.21790   0.00334   0.00000   0.02731   0.02842   3.24632
   R36        2.72889   0.00290   0.00000   0.00697   0.00672   2.73561
   R37        2.91462  -0.00553   0.00000  -0.01603  -0.01656   2.89807
   R38        2.91559   0.00079   0.00000   0.00192   0.00190   2.91749
   R39        2.07310  -0.00001   0.00000  -0.00003  -0.00003   2.07307
   R40        2.90921  -0.00697   0.00000  -0.02231  -0.02229   2.88693
   R41        2.71684  -0.00761   0.00000  -0.01793  -0.01778   2.69907
   R42        2.07388   0.00115   0.00000   0.00315   0.00315   2.07703
   R43        2.81686   0.00358   0.00000   0.01004   0.01010   2.82696
   R44        2.69496   0.00599   0.00000   0.01360   0.01360   2.70856
   R45        2.07252   0.00462   0.00000   0.01262   0.01262   2.08514
   R46        2.54052  -0.00401   0.00000  -0.00719  -0.00710   2.53341
   R47        2.05791  -0.00183   0.00000  -0.00490  -0.00490   2.05301
   R48        2.83958   0.00671   0.00000   0.01858   0.01862   2.85820
   R49        2.81501   0.00404   0.00000   0.01121   0.01121   2.82622
   R50        2.07081  -0.00029   0.00000  -0.00079  -0.00079   2.07002
   R51        2.07498  -0.00054   0.00000  -0.00148  -0.00148   2.07350
   R52        1.85287  -0.00400   0.00000  -0.00744  -0.00701   1.84585
   R53        1.84644  -0.00435   0.00000  -0.00798  -0.00798   1.83845
   R54        2.56446  -0.00044   0.00000  -0.00079  -0.00079   2.56367
   R55        2.30734  -0.01273   0.00000  -0.01306  -0.01306   2.29427
   R56        2.69905   0.00483   0.00000   0.01104   0.01104   2.71009
   R57        2.06644  -0.00093   0.00000  -0.00253  -0.00253   2.06391
   R58        2.06837  -0.00083   0.00000  -0.00225  -0.00225   2.06612
   R59        2.06840  -0.00092   0.00000  -0.00250  -0.00250   2.06589
   R60        2.53989   0.00254   0.00000   0.00431   0.00431   2.54420
   R61        2.31195  -0.01192   0.00000  -0.01237  -0.01213   2.29982
   R62        1.85546  -0.00361   0.00000  -0.00674  -0.00674   1.84872
   R63        3.57497   0.00123   0.00000   0.01607   0.01656   3.59153
    A1        2.04983  -0.00053   0.00000  -0.00156  -0.00200   2.04783
    A2        2.11680  -0.00099   0.00000  -0.00378  -0.00356   2.11324
    A3        2.11646   0.00153   0.00000   0.00539   0.00560   2.12206
    A4        2.12175   0.00436   0.00000   0.01535   0.01537   2.13713
    A5        2.14774  -0.00728   0.00000  -0.02620  -0.02622   2.12152
    A6        2.01369   0.00292   0.00000   0.01086   0.01085   2.02454
    A7        2.11456  -0.00596   0.00000  -0.02235  -0.02252   2.09205
    A8        2.04682   0.00294   0.00000   0.01096   0.01104   2.05786
    A9        2.12178   0.00302   0.00000   0.01139   0.01148   2.13326
   A10        2.05945   0.00571   0.00000   0.02191   0.02148   2.08093
   A11        2.13287   0.00391   0.00000   0.00802   0.00884   2.14171
   A12        2.09084  -0.00962   0.00000  -0.02992  -0.03032   2.06052
   A13        2.10396  -0.00375   0.00000  -0.01468  -0.01380   2.09016
   A14        2.08715   0.00293   0.00000   0.01166   0.01255   2.09970
   A15        2.09204   0.00082   0.00000   0.00302   0.00125   2.09330
   A16        2.11662   0.00018   0.00000   0.00142   0.00153   2.11815
   A17        2.03979   0.00491   0.00000   0.01332   0.01510   2.05488
   A18        2.12678  -0.00509   0.00000  -0.01473  -0.01663   2.11015
   A19        2.05621   0.00390   0.00000   0.01563   0.01556   2.07177
   A20        2.10254  -0.00151   0.00000  -0.00783  -0.00784   2.09470
   A21        2.12444  -0.00239   0.00000  -0.00777  -0.00774   2.11670
   A22        2.14796   0.00182   0.00000   0.00302   0.00321   2.15116
   A23        2.15824   0.00742   0.00000   0.03094   0.03084   2.18908
   A24        1.97697  -0.00924   0.00000  -0.03395  -0.03404   1.94294
   A25        2.13188   0.00055   0.00000  -0.00187  -0.00232   2.12956
   A26        2.05114   0.00042   0.00000   0.00164   0.00146   2.05260
   A27        2.10160   0.02581   0.00000   0.09631   0.09512   2.19672
   A28        2.13040  -0.02623   0.00000  -0.09796  -0.09659   2.03381
   A29        2.02588  -0.00220   0.00000  -0.01384  -0.01378   2.01210
   A30        1.91616  -0.00163   0.00000  -0.01398  -0.01391   1.90224
   A31        1.86221   0.00426   0.00000   0.03330   0.03317   1.89538
   A32        1.88861   0.00396   0.00000   0.02594   0.02593   1.91454
   A33        1.89733  -0.00374   0.00000  -0.02722  -0.02704   1.87029
   A34        1.86754  -0.00067   0.00000  -0.00432  -0.00411   1.86343
   A35        1.91427   0.00233   0.00000   0.01162   0.01138   1.92564
   A36        1.94572   0.00061   0.00000   0.01436   0.01464   1.96036
   A37        1.98834  -0.00093   0.00000  -0.00979  -0.00949   1.97885
   A38        1.82158  -0.00069   0.00000  -0.00506  -0.00509   1.81650
   A39        1.87720  -0.00159   0.00000  -0.00838  -0.00823   1.86896
   A40        1.90809   0.00022   0.00000  -0.00306  -0.00368   1.90441
   A41        1.97550   0.00125   0.00000   0.00331   0.00344   1.97894
   A42        1.93010  -0.00128   0.00000  -0.01699  -0.01703   1.91306
   A43        1.90222  -0.00489   0.00000  -0.03661  -0.03665   1.86557
   A44        1.90945  -0.00058   0.00000   0.00731   0.00719   1.91663
   A45        1.90558   0.00371   0.00000   0.02366   0.02357   1.92915
   A46        1.83561   0.00188   0.00000   0.02094   0.02032   1.85593
   A47        1.97427  -0.00631   0.00000  -0.02875  -0.02868   1.94559
   A48        1.91244   0.00109   0.00000  -0.00332  -0.00319   1.90926
   A49        1.89860   0.00126   0.00000   0.00695   0.00711   1.90571
   A50        1.89298   0.00327   0.00000   0.01713   0.01692   1.90989
   A51        1.92128   0.00306   0.00000   0.02037   0.02038   1.94166
   A52        1.86090  -0.00215   0.00000  -0.01161  -0.01181   1.84909
   A53        1.97461  -0.00741   0.00000  -0.04117  -0.04091   1.93370
   A54        1.92148   0.00424   0.00000   0.02421   0.02411   1.94559
   A55        1.91853   0.00544   0.00000   0.02915   0.02906   1.94759
   A56        1.86304   0.00159   0.00000   0.00888   0.00911   1.87215
   A57        1.87654   0.00022   0.00000  -0.00133  -0.00108   1.87546
   A58        1.90770  -0.00436   0.00000  -0.02122  -0.02162   1.88608
   A59        1.90978  -0.01934   0.00000  -0.10056  -0.10148   1.80830
   A60        1.91710  -0.00161   0.00000  -0.00871  -0.00871   1.90839
   A61        2.05498   0.01391   0.00000   0.05053   0.05008   2.10506
   A62        1.87723  -0.00081   0.00000  -0.00685  -0.00739   1.86984
   A63        1.89751   0.00039   0.00000   0.00786   0.00808   1.90559
   A64        1.92943   0.00037   0.00000  -0.00100  -0.00103   1.92840
   A65        1.92324   0.00222   0.00000   0.01390   0.01409   1.93733
   A66        1.90395  -0.00196   0.00000  -0.01356  -0.01374   1.89021
   A67        1.93177  -0.00019   0.00000  -0.00031  -0.00016   1.93161
   A68        1.94262   0.00414   0.00000   0.01654   0.01662   1.95924
   A69        1.95288   0.00410   0.00000   0.02724   0.02698   1.97986
   A70        1.92219  -0.00418   0.00000  -0.03021  -0.03102   1.89117
   A71        1.86549  -0.00765   0.00000  -0.03717  -0.03699   1.82850
   A72        1.93436  -0.00212   0.00000  -0.03751  -0.03740   1.89696
   A73        1.84337   0.00568   0.00000   0.06272   0.06259   1.90596
   A74        1.98600  -0.00205   0.00000  -0.00966  -0.00993   1.97607
   A75        1.90197   0.00382   0.00000   0.02050   0.02057   1.92254
   A76        1.92544  -0.00463   0.00000  -0.04252  -0.04271   1.88274
   A77        1.88625  -0.00103   0.00000   0.00121   0.00137   1.88762
   A78        1.89970   0.00208   0.00000   0.00316   0.00226   1.90196
   A79        1.85990   0.00217   0.00000   0.03107   0.03135   1.89125
   A80        2.14648   0.00134   0.00000   0.00781   0.00779   2.15427
   A81        2.02864   0.00113   0.00000   0.00583   0.00583   2.03447
   A82        2.10806  -0.00247   0.00000  -0.01364  -0.01364   2.09442
   A83        2.13897   0.00068   0.00000   0.00341   0.00333   2.14229
   A84        2.05900  -0.00134   0.00000  -0.00526  -0.00527   2.05373
   A85        2.08503   0.00068   0.00000   0.00214   0.00213   2.08715
   A86        2.00877  -0.00445   0.00000  -0.01726  -0.01742   1.99135
   A87        1.88389   0.00359   0.00000   0.02724   0.02742   1.91131
   A88        1.90852  -0.00124   0.00000  -0.01917  -0.01910   1.88943
   A89        1.90015   0.00079   0.00000   0.00331   0.00346   1.90361
   A90        1.90166   0.00308   0.00000   0.01743   0.01717   1.91883
[...]
     50          1           0       -5.915878    1.138612   -1.245692
     51          1           0       -2.262479    1.290276    0.805792
     52          1           0       -3.328825    0.300564    1.773812
     53          1           0       -2.946313   -3.263728   -0.522807
     54          1           0       -5.718021   -2.324415   -1.879814
     55          1           0       -3.493475    4.614660    2.753719
     56          1           0       -4.180661    5.120712    1.173193
     57          1           0       -5.242001    4.399867    2.404661
     58          1           0       -0.211841   -2.526634   -2.584344
 ---------------------------------------------------------------------
 Rotational constants (GHZ):      0.1734984      0.0668143      0.0535847

 **********************************************************************

            Population analysis using the SCF density.

 **********************************************************************

 Orbital symmetries:
       Occupied  (A) (A) (A) (A) (A) (A) (A) (A) (A) (A) (A) (A)
                 (A) (A) (A) (A) (A) (A) (A) (A) (A) (A) (A) (A)
                 (A) (A) (A) (A) (A) (A) (A) (A) (A) (A) (A) (A)
                 (A) (A) (A) (A) (A) (A) (A) (A) (A) (A) (A) (A)
                 (A) (A) (A) (A) (A) (A) (A) (A) (A) (A) (A) (A)
                 (A) (A) (A) (A) (A) (A) (A) (A) (A) (A) (A) (A)
                 (A) (A) (A) (A) (A) (A) (A) (A) (A) (A) (A) (A)
                 (A) (A) (A) (A) (A) (A) (A) (A) (A) (A) (A) (A)
                 (A) (A) (A) (A) (A) (A) (A) (A) (A) (A) (A) (A)
                 (A) (A) (A) (A) (A) (A) (A) (A) (A) (A) (A) (A)
                 (A) (A) (A) (A) (A)
       Virtual   (A) (A) (A) (A) (A) (A) (A) (A) (A) (A) (A) (A)
                 (A) (A) (A) (A) (A) (A) (A) (A) (A) (A) (A) (A)
                 (A) (A) (A) (A) (A) (A) (A) (A) (A) (A) (A) (A)
                 (A) (A) (A) (A) (A) (A) (A) (A) (A) (A) (A) (A)
                 (A) (A) (A) (A) (A) (A) (A) (A) (A) (A) (A) (A)
                 (A) (A) (A) (A) (A) (A) (A) (A) (A) (A) (A) (A)
                 (A) (A) (A) (A) (A) (A) (A) (A) (A) (A) (A) (A)
                 (A) (A) (A) (A) (A) (A) (A) (A) (A) (A) (A) (A)
                 (A) (A) (A) (A) (A) (A) (A) (A) (A) (A) (A) (A)
                 (A) (A) (A) (A) (A) (A) (A) (A) (A) (A) (A) (A)
                 (A) (A) (A) (A) (A) (A) (A) (A) (A) (A) (A) (A)
                 (A) (A) (A) (A) (A) (A) (A) (A) (A) (A) (A) (A)
                 (A) (A) (A) (A) (A) (A) (A) (A) (A) (A) (A) (A)
                 (A) (A) (A) (A) (A) (A) (A) (A) (A) (A) (A) (A)
                 (A) (A) (A) (A) (A) (A) (A) (A) (A) (A) (A) (A)
                 (A) (A) (A) (A) (A) (A) (A) (A) (A) (A) (A) (A)
                 (A) (A) (A) (A) (A) (A) (A) (A) (A) (A) (A) (A)
                 (A) (A) (A) (A) (A) (A) (A) (A) (A) (A) (A) (A)
                 (A) (A) (A) (A) (A) (A) (A) (A) (A) (A) (A) (A)
                 (A) (A) (A) (A) (A) (A) (A) (A) (A) (A) (A) (A)
                 (A) (A) (A) (A) (A) (A) (A) (A) (A) (A) (A) (A)
                 (A) (A) (A) (A) (A) (A) (A) (A) (A) (A) (A) (A)
                 (A) (A) (A) (A) (A) (A) (A) (A) (A) (A) (A) (A)
                 (A) (A) (A) (A) (A) (A) (A) (A) (A) (A) (A) (A)
                 (A) (A) (A) (A) (A) (A) (A) (A) (A) (A) (A) (A)
                 (A) (A) (A) (A) (A) (A) (A) (A) (A) (A) (A) (A)
                 (A) (A) (A) (A) (A) (A) (A) (A) (A) (A) (A) (A)
                 (A) (A) (A) (A) (A) (A) (A) (A) (A) (A) (A) (A)
                 (A) (A) (A) (A) (A) (A) (A) (A) (A) (A) (A) (A)
                 (A) (A) (A) (A) (A) (A) (A) (A) (A) (A) (A) (A)
                 (A) (A) (A) (A) (A) (A) (A) (A) (A) (A) (A) (A)
                 (A) (A) (A) (A) (A) (A) (A) (A) (A) (A) (A) (A)
                 (A) (A) (A) (A) (A) (A) (A) (A) (A) (A) (A) (A)
                 (A) (A) (A) (A) (A) (A) (A) (A) (A) (A) (A) (A)
                 (A) (A) (A) (A) (A) (A) (A) (A) (A) (A) (A) (A)
                 (A) (A) (A) (A) (A) (A) (A) (A) (A) (A) (A) (A)
                 (A)
 The electronic state is 1-A.
 Alpha  occ. eigenvalues --  -19.22365 -19.22272 -19.19871 -19.19704 -19.17773
 Alpha  occ. eigenvalues --  -19.17552 -19.16387 -19.15869 -19.14649 -19.14516
 Alpha  occ. eigenvalues --  -19.13490 -10.34253 -10.33036 -10.31695 -10.28156
 Alpha  occ. eigenvalues --  -10.27408 -10.27276 -10.27189 -10.25508 -10.24850
 Alpha  occ. eigenvalues --  -10.24394 -10.24368 -10.22779 -10.21730 -10.21437
 Alpha  occ. eigenvalues --  -10.21398 -10.21314 -10.20955 -10.20673 -10.20629
 Alpha  occ. eigenvalues --  -10.20611 -10.20386 -10.20127 -10.19479  -1.13245
 Alpha  occ. eigenvalues --   -1.12710  -1.10364  -1.08130  -1.06920  -1.06084
 Alpha  occ. eigenvalues --   -1.03883  -1.03669  -1.03106  -1.01444  -1.01352
 Alpha  occ. eigenvalues --   -0.88145  -0.86291  -0.84703  -0.81080  -0.78847
 Alpha  occ. eigenvalues --   -0.77213  -0.76553  -0.76182  -0.74580  -0.72197
 Alpha  occ. eigenvalues --   -0.71073  -0.68976  -0.66662  -0.66420  -0.65240
 Alpha  occ. eigenvalues --   -0.64125  -0.62122  -0.61688  -0.58836  -0.58418
 Alpha  occ. eigenvalues --   -0.57520  -0.55811  -0.55361  -0.54331  -0.53685
 Alpha  occ. eigenvalues --   -0.52359  -0.51366  -0.51211  -0.50786  -0.49695
 Alpha  occ. eigenvalues --   -0.49207  -0.48579  -0.48466  -0.48026  -0.47321
 Alpha  occ. eigenvalues --   -0.47232  -0.46592  -0.46015  -0.45335  -0.44826
 Alpha  occ. eigenvalues --   -0.44707  -0.44245  -0.43919  -0.43574  -0.43237
 Alpha  occ. eigenvalues --   -0.42386  -0.42097  -0.41911  -0.41346  -0.41045
 Alpha  occ. eigenvalues --   -0.40713  -0.40094  -0.39971  -0.39848  -0.39282
 Alpha  occ. eigenvalues --   -0.39176  -0.38524  -0.37848  -0.37601  -0.37333
 Alpha  occ. eigenvalues --   -0.36185  -0.35609  -0.35577  -0.35485  -0.34996
 Alpha  occ. eigenvalues --   -0.34337  -0.34065  -0.33523  -0.32419  -0.31170
 Alpha  occ. eigenvalues --   -0.30551  -0.29153  -0.28683  -0.28270  -0.27889
 Alpha  occ. eigenvalues --   -0.26919  -0.26742  -0.25551  -0.23775  -0.22099
 Alpha virt. eigenvalues --   -0.04984  -0.04445  -0.03157  -0.02397   0.03545
 Alpha virt. eigenvalues --    0.05203   0.05408   0.05988   0.06641   0.07471
 Alpha virt. eigenvalues --    0.08207   0.09647   0.10370   0.10797   0.11027
 Alpha virt. eigenvalues --    0.11215   0.11796   0.12400   0.12775   0.13267
 Alpha virt. eigenvalues --    0.13879   0.14031   0.14359   0.15009   0.15582
 Alpha virt. eigenvalues --    0.15896   0.15983   0.16376   0.16952   0.17048
 Alpha virt. eigenvalues --    0.17378   0.17614   0.17859   0.18500   0.18978
 Alpha virt. eigenvalues --    0.19271   0.19496   0.20277   0.20710   0.20856
 Alpha virt. eigenvalues --    0.22261   0.22872   0.23303   0.23634   0.24860
 Alpha virt. eigenvalues --    0.25285   0.25558   0.25915   0.26848   0.27673
 Alpha virt. eigenvalues --    0.28792   0.29523   0.30072   0.31548   0.31823
 Alpha virt. eigenvalues --    0.32861   0.33245   0.34034   0.36407   0.37996
 Alpha virt. eigenvalues --    0.38699   0.39973   0.40445   0.40949   0.42106
 Alpha virt. eigenvalues --    0.43318   0.45230   0.46095   0.46974   0.49033
 Alpha virt. eigenvalues --    0.49801   0.50389   0.50770   0.51384   0.51531
 Alpha virt. eigenvalues --    0.51679   0.52542   0.52942   0.53607   0.53762
 Alpha virt. eigenvalues --    0.54228   0.55388   0.55838   0.55865   0.56178
 Alpha virt. eigenvalues --    0.56511   0.57192   0.58020   0.58482   0.58741
 Alpha virt. eigenvalues --    0.59297   0.60074   0.60309   0.60849   0.61281
 Alpha virt. eigenvalues --    0.62143   0.62331   0.63274   0.63892   0.63983
 Alpha virt. eigenvalues --    0.64578   0.65420   0.65565   0.65918   0.66389
 Alpha virt. eigenvalues --    0.66804   0.67987   0.68925   0.69350   0.69678
 Alpha virt. eigenvalues --    0.70782   0.71317   0.71690   0.71969   0.72701
 Alpha virt. eigenvalues --    0.73286   0.73668   0.74033   0.74500   0.75394
 Alpha virt. eigenvalues --    0.75582   0.76594   0.76741   0.78100   0.78810
 Alpha virt. eigenvalues --    0.79805   0.80388   0.81210   0.81381   0.82242
 Alpha virt. eigenvalues --    0.82670   0.83271   0.83662   0.84210   0.84546
 Alpha virt. eigenvalues --    0.84572   0.85095   0.85673   0.86048   0.86239
 Alpha virt. eigenvalues --    0.86896   0.87885   0.88176   0.89161   0.90220
 Alpha virt. eigenvalues --    0.90459   0.91345   0.91586   0.91948   0.92530
 Alpha virt. eigenvalues --    0.92672   0.93575   0.93948   0.94421   0.95187
 Alpha virt. eigenvalues --    0.95942   0.96209   0.96625   0.97089   0.97967
 Alpha virt. eigenvalues --    0.98233   0.98635   0.99072   1.00261   1.00585
 Alpha virt. eigenvalues --    1.00887   1.01144   1.01530   1.02821   1.03212
 Alpha virt. eigenvalues --    1.03813   1.04661   1.05128   1.05846   1.06635
 Alpha virt. eigenvalues --    1.07175   1.07961   1.09118   1.09663   1.10798
 Alpha virt. eigenvalues --    1.11340   1.12539   1.13347   1.14191   1.15789
 Alpha virt. eigenvalues --    1.16649   1.17715   1.18170   1.19006   1.20180
 Alpha virt. eigenvalues --    1.21214   1.21901   1.22536   1.23734   1.24080
 Alpha virt. eigenvalues --    1.25415   1.25852   1.26821   1.27657   1.29229
 Alpha virt. eigenvalues --    1.30372   1.31100   1.31862   1.32273   1.33618
 Alpha virt. eigenvalues --    1.33765   1.35295   1.35917   1.36524   1.37403
 Alpha virt. eigenvalues --    1.37977   1.38443   1.39169   1.39671   1.41143
 Alpha virt. eigenvalues --    1.42593   1.42763   1.43264   1.43725   1.44855
 Alpha virt. eigenvalues --    1.45193   1.45561   1.47063   1.48943   1.50891
 Alpha virt. eigenvalues --    1.51226   1.53140   1.55499   1.57830   1.59705
 Alpha virt. eigenvalues --    1.60797   1.61370   1.62190   1.63747   1.64777
 Alpha virt. eigenvalues --    1.65094   1.65951   1.67730   1.68108   1.69161
 Alpha virt. eigenvalues --    1.69404   1.70009   1.70399   1.70609   1.70941
 Alpha virt. eigenvalues --    1.71387   1.72014   1.72424   1.73101   1.73392
 Alpha virt. eigenvalues --    1.73608   1.74636   1.75367   1.76372   1.76786
 Alpha virt. eigenvalues --    1.77878   1.78941   1.79966   1.80236   1.80586
 Alpha virt. eigenvalues --    1.81096   1.82062   1.82549   1.83317   1.83619
 Alpha virt. eigenvalues --    1.83645   1.84466   1.84890   1.85082   1.86331
 Alpha virt. eigenvalues --    1.87458   1.88160   1.88252   1.88741   1.89352
 Alpha virt. eigenvalues --    1.90670   1.91450   1.92016   1.92327   1.93117
 Alpha virt. eigenvalues --    1.93990   1.94789   1.95201   1.95519   1.96201
 Alpha virt. eigenvalues --    1.96427   1.97911   1.98893   1.99598   2.00676
 Alpha virt. eigenvalues --    2.01010   2.02240   2.02597   2.03680   2.04179
 Alpha virt. eigenvalues --    2.04539   2.04974   2.05837   2.06135   2.07550
 Alpha virt. eigenvalues --    2.08317   2.09520   2.09827   2.10109   2.11224
 Alpha virt. eigenvalues --    2.11881   2.12906   2.13789   2.14470   2.16129
 Alpha virt. eigenvalues --    2.17504   2.19434   2.20184   2.20893   2.22356
 Alpha virt. eigenvalues --    2.23369   2.23699   2.25676   2.26157   2.26538
 Alpha virt. eigenvalues --    2.27189   2.28563   2.29115   2.29474   2.30136
 Alpha virt. eigenvalues --    2.31218   2.31271   2.32855   2.33434   2.33833
 Alpha virt. eigenvalues --    2.34553   2.35502   2.37038   2.37675   2.38532
 Alpha virt. eigenvalues --    2.39113   2.40510   2.42317   2.42695   2.44127
 Alpha virt. eigenvalues --    2.44944   2.45697   2.46856   2.47194   2.48000
 Alpha virt. eigenvalues --    2.48694   2.49200   2.51618   2.52814   2.53721
 Alpha virt. eigenvalues --    2.54277   2.56369   2.56711   2.56843   2.58362
 Alpha virt. eigenvalues --    2.58791   2.60560   2.61561   2.63408   2.64906
 Alpha virt. eigenvalues --    2.65220   2.67662   2.69001   2.69430   2.69768
 Alpha virt. eigenvalues --    2.69967   2.71752   2.72454   2.74708   2.75341
 Alpha virt. eigenvalues --    2.76748   2.77349   2.79269   2.79561   2.81463
 Alpha virt. eigenvalues --    2.83979   2.84999   2.86249   2.86750   2.90195
 Alpha virt. eigenvalues --    2.91058   2.93848   2.94971   2.96486   2.97906
 Alpha virt. eigenvalues --    2.99474   3.00307   3.02910   3.06155   3.06867
 Alpha virt. eigenvalues --    3.08595   3.10383   3.12435   3.15569   3.17050
 Alpha virt. eigenvalues --    3.22557   3.23201   3.43744   3.50050   3.78389
 Alpha virt. eigenvalues --    3.86136   3.95415   3.96325   3.99503   3.99904
 Alpha virt. eigenvalues --    4.05226   4.07016   4.10648   4.13564   4.16777
 Alpha virt. eigenvalues --    4.18764   4.20812   4.21809   4.25465   4.25513
 Alpha virt. eigenvalues --    4.26669   4.32304   4.34039   4.36988   4.37763
 Alpha virt. eigenvalues --    4.39882   4.43734   4.49936   4.52714   4.53962
 Alpha virt. eigenvalues --    4.55300   4.57363   4.59891   4.66042   4.71513
 Alpha virt. eigenvalues --    4.75514   4.79531   4.88094
          Condensed to atoms (all electrons):
 Mulliken atomic charges:
              1
     1  C    0.110353
     2  C    0.299285
     3  C   -0.269971
     4  C    0.142213
     5  C   -0.061082
     6  C    0.238827
     7  C    0.055683
     8  C    0.282311
     9  O   -0.497333
    10  C    0.599605
    11  C   -0.381531
    12  C    0.249095
    13  C   -0.287559
    14  C   -0.365642
    15  C   -0.585788
    16  O   -0.659405
    17  O   -0.638093
    18  O   -0.536341
    19  O   -0.550851
    20  C    0.108534
    21  C    0.100765
    22  C    0.108310
    23  C   -0.148402
    24  C    0.055613
    25  C   -0.349068
    26  O   -0.664734
    27  O   -0.637928
    28  C    0.596124
    29  O   -0.468233
    30  O   -0.489299
    31  C   -0.217590
    32  C    0.603517
    33  O   -0.564859
    34  O   -0.482752
    35  H    0.139999
    36  H    0.178976
    37  H    0.173976
    38  H    0.173589
    39  H    0.160162
    40  H    0.178970
    41  H    0.189526
    42  H    0.209988
    43  H    0.161372
    44  H    0.162314
    45  H    0.449403
    46  H    0.422471
    47  H    0.149617
    48  H    0.137965
    49  H    0.139603
    50  H    0.184306
    51  H    0.164341
    52  H    0.174523
    53  H    0.417404
    54  H    0.407440
    55  H    0.163876
    56  H    0.172786
    57  H    0.173580
    58  H    0.420038
 Sum of Mulliken atomic charges =   0.00000
 Mulliken charges with hydrogens summed into heavy atoms:
              1
     1  C    0.110353
     2  C    0.299285
     3  C   -0.129972
     4  C    0.142213
     5  C   -0.061082
     6  C    0.238827
     7  C    0.055683
     8  C    0.282311
     9  O   -0.497333
    10  C    0.599605
    11  C   -0.028580
    12  C    0.249095
    13  C    0.046192
    14  C    0.002854
    15  C   -0.052113
    16  O   -0.210002
    17  O   -0.215622
    18  O   -0.536341
    19  O   -0.550851
    20  C    0.258151
    21  C    0.238730
    22  C    0.247914
    23  C    0.035904
    24  C    0.055613
    25  C   -0.010204
    26  O   -0.247329
    27  O   -0.230488
    28  C    0.596124
    29  O   -0.468233
    30  O   -0.489299
    31  C    0.292651
    32  C    0.603517
    33  O   -0.144821
    34  O   -0.482752
 Sum of Mulliken charges with hydrogens summed into heavy atoms =   0.00000
 Electronic spatial extent (au):  <R**2>=          19345.4814
 Charge=              0.0000 electrons
 Dipole moment (field-independent basis, Debye):
    X=              1.2944    Y=              2.3821    Z=              0.2092  Tot=              2.7192
 Quadrupole moment (field-independent basis, Debye-Ang):
   XX=           -242.3457   YY=           -184.6700   ZZ=           -183.0585
   XY=             20.3019   XZ=            -15.0161   YZ=              3.2750
 Traceless Quadrupole moment (field-independent basis, Debye-Ang):
   XX=            -38.9876   YY=             18.6881   ZZ=             20.2996
   XY=             20.3019   XZ=            -15.0161   YZ=              3.2750
 Octapole moment (field-independent basis, Debye-Ang**2):
  XXX=             56.3353  YYY=             86.1833  ZZZ=            -20.5116  XYY=             31.9794
  XXY=             49.2753  XXZ=              0.1777  XZZ=            -17.9341  YZZ=             -5.0926
  YYZ=              7.8451  XYZ=            -41.5786
 Hexadecapole moment (field-independent basis, Debye-Ang**3):
 XXXX=         -19693.4726 YYYY=          -5584.6488 ZZZZ=          -1368.9143 XXXY=            865.3515
 XXXZ=           -485.6784 YYYX=            241.5678 YYYZ=             66.4626 ZZZX=              1.3954
 ZZZY=            104.7427 XXYY=          -3746.3808 XXZZ=          -3017.5156 YYZZ=          -1062.4032
 XXYZ=             97.4397 YYXZ=           -252.8321 ZZXY=            -31.0898
 N-N= 3.681297834447D+03 E-N=-1.137572387325D+04  KE= 1.703119275211D+03
 1\1\GINC-B0604\FOpt\RB3LYP\6-31G(d)\C23H24O11\CAOFEI\02-Feb-2021\0\\# 
 opt b3lyp/6-31g(d) geom=connectivity\\Title Card Required\\0,1\C,3.935
 8740759,-3.6572570277,-0.0455406973\C,3.5003692536,-2.452056794,0.5307
 99406\C,2.2617277881,-1.8724007021,0.2333244897\C,1.4040107257,-2.4985
 945785,-0.6683935198\C,1.8069990706,-3.7246643346,-1.2659544786\C,3.07
 37141011,-4.2926395675,-0.950379367\C,0.0972571992,-1.9654970457,-1.02
 96488313\C,-0.6817017978,-2.6699711514,-1.8812431357\O,-0.2831585419,-
 3.8514512936,-2.4516174705\C,0.9416562538,-4.4147600015,-2.1914105809\
 C,-0.3957706193,-0.6565168875,-0.4446038513\C,-1.5622986522,-0.0463979
 842,-1.2406494242\C,-2.6221695217,-1.1222320189,-1.5076417959\C,-2.057
 0779416,-2.2817676879,-2.3352555336\C,5.2810564735,-4.2477994403,0.299
 3847276\O,3.4759890014,-5.4470355123,-1.5061539701\O,4.2764447949,-1.7
 781368214,1.4219667376\O,1.1968882377,-5.4713019573,-2.767545332\O,-2.
 2568921181,0.9714377608,-0.5077648961\C,-1.5510082871,2.1367774308,-0.
 0357296318\C,-2.2701711239,3.3673811672,-0.5923851486\C,-1.5596747739,
 4.6463862795,-0.1518296947\C,-1.3018559047,4.64442585,1.3258021761\C,-
 1.2760493531,3.5265703538,2.0679405192\C,-1.5593343468,2.1496741691,1.
 4993091194\O,-2.2864016289,3.3965381629,-2.0139500352\O,-2.3211181815,
 5.7983764915,-0.4857678785\C,-0.9871594076,3.6752993917,3.5254190671\O
 ,-1.0472976407,2.4826118243,4.16747619\O,-0.7322888666,4.7190885874,4.
 0921865661\C,-0.7933148774,2.5357301291,5.5799098303\C,-1.1334689013,0
 .5769975223,-2.5911089194\O,0.1643268517,0.9390930175,-2.6394704767\O,
 -1.9029891554,0.7816269649,-3.506725338\H,2.0032497959,-0.9437967858,0
 .7265206685\H,0.4343665625,0.0526153519,-0.3939472724\H,-0.7494017502,
 -0.8094932517,0.5838894561\H,-3.4717623392,-0.6660269926,-2.0201450217
 \H,-2.9686300383,-1.4785364339,-0.5315191128\H,-2.7129608055,-3.157818
 2573,-2.2652348976\H,-2.0240672842,-2.0153860503,-3.4004387727\H,5.442
 099288,-5.1713398703,-0.2579615263\H,6.1066243333,-3.5659737519,0.0484
 491121\H,5.3612913488,-4.4927383064,1.3684663232\H,2.7475532254,-5.748
 6673532,-2.1121270561\H,5.1061363174,-2.261944313,1.5579362903\H,-0.52
 26527194,2.1382484558,-0.4156777069\H,-3.2957723177,3.3886667988,-0.19
 19909459\H,-0.5873996893,4.6791010321,-0.6790364672\H,-1.1132669927,5.
 6051795562,1.7968320473\H,-0.8383358905,1.4224571033,1.8871713611\H,-2
 .5434981982,1.801880928,1.8408114113\H,-2.7742279942,2.618156273,-2.33
 11673768\H,-2.5293344743,5.7061524096,-1.4309186751\H,-0.8756671693,1.
 506624315,5.931033354\H,0.2068676429,2.9314822403,5.7752348145\H,-1.52
 88175431,3.1731026205,6.0778711307\H,0.2924944962,1.3905200056,-3.4967
 999392\\Version=EM64L-G09RevB.01\State=1-A\HF=-1718.3732471\RMSD=9.724
 e-09\RMSF=4.061e-06\Dipole=0.6953654,-0.4589633,0.6710444\Quadrupole=1
 8.5677412,-27.2914402,8.723699,4.7618247,2.7628085,-19.3844735\PG=C01 
 [X(C23H24O11)]\\@


 TIME GOES, YOU SAY?  AH NO!
 ALAS, TIME STAYS, WE GO.
    -- A. DOBSON (1840-1921)
 Job cpu time:  0 days  8 hours 25 minutes  0.9 seconds.
 File lengths (MBytes):  RWF=    201 Int=      0 D2E=      0 Chk=     21 Scr=      1
 Normal termination of Gaussian 09 at Tue Feb  2 12:05:45 2021.
