 Entering Gaussian System, Link 0=g09
 Initial command:
 /public/software/g09/g09/l1.exe /tmp/Gau-28960.inp -scrdir=/tmp/
 Entering Link 1 = /public/software/g09/g09/l1.exe PID=     28965.
  
 Copyright (c) 1988,1990,1992,1993,1995,1998,2003,2009,2010,
            Gaussian, Inc.  All Rights Reserved.
  
 This is part of the Gaussian(R) 09 program.  It is based on
 the Gaussian(R) 03 system (copyright 2003, Gaussian, Inc.),
 the Gaussian(R) 98 system (copyright 1998, Gaussian, Inc.),
 the Gaussian(R) 94 system (copyright 1995, Gaussian, Inc.),
 the Gaussian 92(TM) system (copyright 1992, Gaussian, Inc.),
 the Gaussian 90(TM) system (copyright 1990, Gaussian, Inc.),
 the Gaussian 88(TM) system (copyright 1988, Gaussian, Inc.),
 the Gaussian 86(TM) system (copyright 1986, Carnegie Mellon
 University), and the Gaussian 82(TM) system (copyright 1983,
 Carnegie Mellon University). Gaussian is a federally registered
 trademark of Gaussian, Inc.
  
 This software contains proprietary and confidential information,
 including trade secrets, belonging to Gaussian, Inc.
  
 This software is provided under written license and may be
 used, copied, transmitted, or stored only in accord with that
 written license.
  
 The following legend is applicable only to US Government
 contracts under FAR:
  
                    RESTRICTED RIGHTS LEGEND
  
 Use, reproduction and disclosure by the US Government is
 subject to restrictions as set forth in subparagraphs (a)
 and (c) of the Commercial Computer Software - Restricted
 Rights clause in FAR 52.227-19.
  
 Gaussian, Inc.
 340 Quinnipiac St., Bldg. 40, Wallingford CT 06492
  
  
 ---------------------------------------------------------------
 Warning -- This program may not be used in any manner that
 competes with the business of Gaussian, Inc. or will provide
 assistance to any competitor of Gaussian, Inc.  The licensee
 of this program is prohibited from giving any competitor of
 Gaussian, Inc. access to this program.  By using this program,
 the user acknowledges that Gaussian, Inc. is engaged in the
 business of creating and licensing software in the field of
 computational chemistry and represents and warrants to the
 licensee that it is not a competitor of Gaussian, Inc. and that
 it will not use this program in any manner prohibited above.
 ---------------------------------------------------------------
  

 Cite this work as:
 Gaussian 09, Revision B.01,
 M. J. Frisch, G. W. Trucks, H. B. Schlegel, G. E. Scuseria, 
 M. A. Robb, J. R. Cheeseman, G. Scalmani, V. Barone, B. Mennucci, 
 G. A. Petersson, H. Nakatsuji, M. Caricato, X. Li, H. P. Hratchian, 
 A. F. Izmaylov, J. Bloino, G. Zheng, J. L. Sonnenberg, M. Hada, 
 M. Ehara, K. Toyota, R. Fukuda, J. Hasegawa, M. Ishida, T. Nakajima, 
 Y. Honda, O. Kitao, H. Nakai, T. Vreven, J. A. Montgomery, Jr., 
 J. E. Peralta, F. Ogliaro, M. Bearpark, J. J. Heyd, E. Brothers, 
 K. N. Kudin, V. N. Staroverov, T. Keith, R. Kobayashi, J. Normand, 
 K. Raghavachari, A. Rendell, J. C. Burant, S. S. Iyengar, J. Tomasi, 
 M. Cossi, N. Rega, J. M. Millam, M. Klene, J. E. Knox, J. B. Cross, 
 V. Bakken, C. Adamo, J. Jaramillo, R. Gomperts, R. E. Stratmann, 
 O. Yazyev, A. J. Austin, R. Cammi, C. Pomelli, J. W. Ochterski, 
 R. L. Martin, K. Morokuma, V. G. Zakrzewski, G. A. Voth, 
 P. Salvador, J. J. Dannenberg, S. Dapprich, A. D. Daniels, 
 O. Farkas, J. B. Foresman, J. V. Ortiz, J. Cioslowski, 
 and D. J. Fox, Gaussian, Inc., Wallingford CT, 2010.
 
 ******************************************
 Gaussian 09:  EM64L-G09RevB.01 12-Aug-2010
                 2-Feb-2021 
 ******************************************
 %mem=600MW
 %nprocshared=10
 Will use up to   10 processors via shared memory.
 --------------------------------------
 # opt b3lyp/6-31g(d) geom=connectivity
 --------------------------------------
 1/14=-1,18=20,19=15,26=3,38=1,57=2/1,3;
 2/9=110,12=2,17=6,18=5,40=1/2;
 3/5=1,6=6,7=1,11=2,16=1,25=1,30=1,71=1,74=-5/1,2,3;
 4//1;
 5/5=2,38=5/2;
 6/7=2,8=2,9=2,10=2,28=1/1;
 7//1,2,3,16;
 1/14=-1,18=20,19=15/3(2);
 2/9=110/2;
 99//99;
 2/9=110/2;
 3/5=1,6=6,7=1,11=2,16=1,25=1,30=1,71=1,74=-5/1,2,3;
 4/5=5,16=3/1;
 5/5=2,38=5/2;
 7//1,2,3,16;
 1/14=-1,18=20,19=15/3(-5);
 2/9=110/2;
 6/7=2,8=2,9=2,10=2,19=2,28=1/1;
 99/9=1/99;
 -------------------
 Title Card Required
 -------------------
 Symbolic Z-matrix:
 Charge =  0 Multiplicity = 1
 C                     4.5956   -0.59446   4.06956 
 C                     3.50934   0.27813   4.18188 
 C                     2.72655   0.61804   3.07564 
 C                     3.0018    0.09609   1.80473 
 C                     4.09682  -0.76772   1.67217 
 C                     4.88283  -1.10932   2.79552 
 C                     2.19001   0.43595   0.62291 
 C                     2.56701  -0.0703   -0.56215 
 O                     3.67155  -0.92894  -0.71432 
 C                     4.43732  -1.31738   0.34075 
 C                     0.96929   1.32645   0.7557 
 C                     0.03211   1.33606  -0.48816 
 C                     0.91397   1.42022  -1.74914 
 C                     1.8715    0.23586  -1.85732 
 C                     5.43241  -0.95701   5.26536 
 O                     5.96274  -1.9547    2.69575 
 O                     3.13843   0.85759   5.36352 
 O                     5.3858   -2.08671   0.20954 
 O                    -0.71504   0.10853  -0.42045 
 C                    -1.65497  -0.1995   -1.46572 
 C                    -1.93385  -1.70896  -1.35287 
 C                    -2.90144  -2.16969  -2.45385 
 C                    -4.0931   -1.27852  -2.58877 
 C                    -4.14296  -0.0395   -2.06426 
 C                    -2.97795   0.57272  -1.32626 
 O                    -0.70703  -2.44932  -1.47075 
 O                    -3.36579  -3.48206  -2.14623 
 C                    -5.34793   0.83326  -2.16952 
 O                    -6.31053   0.2684   -2.93783 
 O                    -5.41984   1.92561  -1.62443 
 C                    -7.4898    1.06194  -3.07155 
 C                    -0.81984   2.61528  -0.36592 
 O                    -1.62486   2.62009   0.71724 
 O                    -0.83658   3.55537  -1.14446 
 H                     1.90077   1.30547   3.24097 
 H                     1.31686   2.34551   0.97434 
 H                     0.37506   0.98754   1.61501 
 H                     1.49972   2.35037  -1.72718 
 H                     0.30841   1.47722  -2.66061 
 H                     1.33245  -0.65775  -2.19025 
 H                     2.61695   0.46024  -2.62982 
 H                     6.21178  -1.69005   5.03889 
 H                     5.92812  -0.06353   5.65904 
 H                     4.80158  -1.39483   6.04628 
 H                     6.06095  -2.25061   1.7628 
 H                     3.74132   0.57899   6.07093 
 H                    -1.19712  -0.01085  -2.44219 
 H                    -2.33263  -1.9538   -0.35949 
 H                    -2.3859   -2.23485  -3.41919 
 H                    -4.93666  -1.69703  -3.1328 
 H                    -2.82076   1.59049  -1.70013 
 H                    -3.24115   0.66186  -0.26467 
 H                    -0.1114   -2.05962  -0.80018 
 H                    -2.55929  -4.00308  -1.96702 
 H                    -8.1975    0.51399  -3.69977 
 H                    -7.95255   1.2297   -2.09391 
 H                    -7.258     2.01366  -3.55988 
 H                    -2.14454   3.4495    0.6425 
 

 GradGradGradGradGradGradGradGradGradGradGradGradGradGradGradGradGradGrad
 Berny optimization.
 Initialization pass.
                           ----------------------------
                           !    Initial Parameters    !
                           ! (Angstroms and Degrees)  !
 --------------------------                            --------------------------
 ! Name  Definition              Value          Derivative Info.                !
 --------------------------------------------------------------------------------
 ! R1    R(1,2)                  1.3979         estimate D2E/DX2                !
 ! R2    R(1,6)                  1.4038         estimate D2E/DX2                !
 ! R3    R(1,15)                 1.5039         estimate D2E/DX2                !
 ! R4    R(2,3)                  1.3972         estimate D2E/DX2                !
 ! R5    R(2,17)                 1.3673         estimate D2E/DX2                !
 ! R6    R(3,4)                  1.4012         estimate D2E/DX2                !
 ! R7    R(3,35)                 1.0871         estimate D2E/DX2                !
 ! R8    R(4,5)                  1.401          estimate D2E/DX2                !
 ! R9    R(4,7)                  1.4735         estimate D2E/DX2                !
 ! R10   R(5,6)                  1.4129         estimate D2E/DX2                !
 ! R11   R(5,10)                 1.4801         estimate D2E/DX2                !
 ! R12   R(6,16)                 1.3751         estimate D2E/DX2                !
 ! R13   R(7,8)                  1.3427         estimate D2E/DX2                !
 ! R14   R(7,11)                 1.5168         estimate D2E/DX2                !
 ! R15   R(8,9)                  1.4073         estimate D2E/DX2                !
 ! R16   R(8,14)                 1.5016         estimate D2E/DX2                !
 ! R17   R(9,10)                 1.3603         estimate D2E/DX2                !
 ! R18   R(10,18)                1.2283         estimate D2E/DX2                !
 ! R19   R(11,12)                1.5574         estimate D2E/DX2                !
 ! R20   R(11,36)                1.0987         estimate D2E/DX2                !
 ! R21   R(11,37)                1.0984         estimate D2E/DX2                !
 ! R22   R(12,13)                1.541          estimate D2E/DX2                !
 ! R23   R(12,19)                1.4386         estimate D2E/DX2                !
 ! R24   R(12,32)                1.5418         estimate D2E/DX2                !
 ! R25   R(13,14)                1.5269         estimate D2E/DX2                !
 ! R26   R(13,38)                1.0994         estimate D2E/DX2                !
 ! R27   R(13,39)                1.0958         estimate D2E/DX2                !
 ! R28   R(14,40)                1.0954         estimate D2E/DX2                !
 ! R29   R(14,41)                1.0967         estimate D2E/DX2                !
 ! R30   R(15,42)                1.0936         estimate D2E/DX2                !
 ! R31   R(15,43)                1.095          estimate D2E/DX2                !
 ! R32   R(15,44)                1.0952         estimate D2E/DX2                !
 ! R33   R(16,45)                0.9837         estimate D2E/DX2                !
 ! R34   R(17,46)                0.9703         estimate D2E/DX2                !
 ! R35   R(18,45)                1.7016         estimate D2E/DX2                !
 ! R36   R(19,20)                1.4391         estimate D2E/DX2                !
 ! R37   R(20,21)                1.5392         estimate D2E/DX2                !
 ! R38   R(20,25)                1.5382         estimate D2E/DX2                !
 ! R39   R(20,47)                1.0949         estimate D2E/DX2                !
 ! R40   R(21,22)                1.5364         estimate D2E/DX2                !
 ! R41   R(21,26)                1.4377         estimate D2E/DX2                !
 ! R42   R(21,48)                1.0981         estimate D2E/DX2                !
 ! R43   R(22,23)                1.4941         estimate D2E/DX2                !
 ! R44   R(22,27)                1.4257         estimate D2E/DX2                !
 ! R45   R(22,49)                1.0963         estimate D2E/DX2                !
 ! R46   R(23,24)                1.3464         estimate D2E/DX2                !
 ! R47   R(23,50)                1.0875         estimate D2E/DX2                !
 ! R48   R(24,25)                1.5089         estimate D2E/DX2                !
 ! R49   R(24,28)                1.4916         estimate D2E/DX2                !
 ! R50   R(25,51)                1.0956         estimate D2E/DX2                !
 ! R51   R(25,52)                1.0974         estimate D2E/DX2                !
 ! R52   R(26,53)                0.9779         estimate D2E/DX2                !
 ! R53   R(27,54)                0.9767         estimate D2E/DX2                !
 ! R54   R(28,29)                1.355          estimate D2E/DX2                !
 ! R55   R(28,30)                1.2229         estimate D2E/DX2                !
 ! R56   R(29,31)                1.4277         estimate D2E/DX2                !
 ! R57   R(31,55)                1.0935         estimate D2E/DX2                !
 ! R58   R(31,56)                1.0946         estimate D2E/DX2                !
 ! R59   R(31,57)                1.0945         estimate D2E/DX2                !
 ! R60   R(32,33)                1.3496         estimate D2E/DX2                !
 ! R61   R(32,34)                1.2207         estimate D2E/DX2                !
 ! R62   R(33,58)                0.9816         estimate D2E/DX2                !
 ! A1    A(2,1,6)              117.4424         estimate D2E/DX2                !
 ! A2    A(2,1,15)             121.2651         estimate D2E/DX2                !
 ! A3    A(6,1,15)             121.2898         estimate D2E/DX2                !
 ! A4    A(1,2,3)              121.5758         estimate D2E/DX2                !
 ! A5    A(1,2,17)             123.0096         estimate D2E/DX2                !
 ! A6    A(3,2,17)             115.4145         estimate D2E/DX2                !
 ! A7    A(2,3,4)              121.1622         estimate D2E/DX2                !
 ! A8    A(2,3,35)             117.3229         estimate D2E/DX2                !
 ! A9    A(4,3,35)             121.5144         estimate D2E/DX2                !
 ! A10   A(3,4,5)              117.9712         estimate D2E/DX2                !
 ! A11   A(3,4,7)              122.2299         estimate D2E/DX2                !
 ! A12   A(5,4,7)              119.7968         estimate D2E/DX2                !
 ! A13   A(4,5,6)              120.5729         estimate D2E/DX2                !
 ! A14   A(4,5,10)             119.5966         estimate D2E/DX2                !
 ! A15   A(6,5,10)             119.8287         estimate D2E/DX2                !
 ! A16   A(1,6,5)              121.2682         estimate D2E/DX2                !
 ! A17   A(1,6,16)             116.8726         estimate D2E/DX2                !
 ! A18   A(5,6,16)             121.859          estimate D2E/DX2                !
 ! A19   A(4,7,8)              117.7901         estimate D2E/DX2                !
 ! A20   A(4,7,11)             120.5689         estimate D2E/DX2                !
 ! A21   A(8,7,11)             121.6409         estimate D2E/DX2                !
 ! A22   A(7,8,9)              123.0844         estimate D2E/DX2                !
 ! A23   A(7,8,14)             123.6643         estimate D2E/DX2                !
 ! A24   A(9,8,14)             113.2448         estimate D2E/DX2                !
 ! A25   A(8,9,10)             122.1538         estimate D2E/DX2                !
 ! A26   A(5,10,9)             117.5252         estimate D2E/DX2                !
 ! A27   A(5,10,18)            120.4199         estimate D2E/DX2                !
 ! A28   A(9,10,18)            122.0526         estimate D2E/DX2                !
 ! A29   A(7,11,12)            114.7072         estimate D2E/DX2                !
 ! A30   A(7,11,36)            107.9009         estimate D2E/DX2                !
 ! A31   A(7,11,37)            108.8288         estimate D2E/DX2                !
 ! A32   A(12,11,36)           110.0948         estimate D2E/DX2                !
 ! A33   A(12,11,37)           107.529          estimate D2E/DX2                !
 ! A34   A(36,11,37)           107.5572         estimate D2E/DX2                !
 ! A35   A(11,12,13)           108.0292         estimate D2E/DX2                !
 ! A36   A(11,12,19)           105.6443         estimate D2E/DX2                !
 ! A37   A(11,12,32)           105.9204         estimate D2E/DX2                !
 ! A38   A(13,12,19)           112.477          estimate D2E/DX2                !
 ! A39   A(13,12,32)           109.6189         estimate D2E/DX2                !
 ! A40   A(19,12,32)           114.6604         estimate D2E/DX2                !
 ! A41   A(12,13,14)           111.9922         estimate D2E/DX2                !
 ! A42   A(12,13,38)           109.5568         estimate D2E/DX2                !
 ! A43   A(12,13,39)           111.5451         estimate D2E/DX2                !
 ! A44   A(14,13,38)           108.878          estimate D2E/DX2                !
 ! A45   A(14,13,39)           109.1465         estimate D2E/DX2                !
 ! A46   A(38,13,39)           105.4873         estimate D2E/DX2                !
 ! A47   A(8,14,13)            112.7993         estimate D2E/DX2                !
 ! A48   A(8,14,40)            108.8892         estimate D2E/DX2                !
 ! A49   A(8,14,41)            109.537          estimate D2E/DX2                !
 ! A50   A(13,14,40)           110.2252         estimate D2E/DX2                !
 ! A51   A(13,14,41)           108.5099         estimate D2E/DX2                !
 ! A52   A(40,14,41)           106.6964         estimate D2E/DX2                !
 ! A53   A(1,15,42)            113.1702         estimate D2E/DX2                !
 ! A54   A(1,15,43)            109.9417         estimate D2E/DX2                !
 ! A55   A(1,15,44)            110.0499         estimate D2E/DX2                !
 ! A56   A(42,15,43)           107.383          estimate D2E/DX2                !
 ! A57   A(42,15,44)           106.8688         estimate D2E/DX2                !
 ! A58   A(43,15,44)           109.305          estimate D2E/DX2                !
 ! A59   A(6,16,45)            109.4002         estimate D2E/DX2                !
 ! A60   A(2,17,46)            109.8656         estimate D2E/DX2                !
 ! A61   A(12,19,20)           119.1872         estimate D2E/DX2                !
 ! A62   A(19,20,21)           105.9629         estimate D2E/DX2                !
 ! A63   A(19,20,25)           112.858          estimate D2E/DX2                !
 ! A64   A(19,20,47)           109.7427         estimate D2E/DX2                !
 ! A65   A(21,20,25)           109.2599         estimate D2E/DX2                !
 ! A66   A(21,20,47)           108.0679         estimate D2E/DX2                !
 ! A67   A(25,20,47)           110.7339         estimate D2E/DX2                !
 ! A68   A(20,21,22)           110.8337         estimate D2E/DX2                !
 ! A69   A(20,21,26)           110.1445         estimate D2E/DX2                !
 ! A70   A(20,21,48)           110.5358         estimate D2E/DX2                !
 ! A71   A(22,21,26)           108.9172         estimate D2E/DX2                !
 ! A72   A(22,21,48)           110.652          estimate D2E/DX2                !
 ! A73   A(26,21,48)           105.619          estimate D2E/DX2                !
 ! A74   A(21,22,23)           112.8376         estimate D2E/DX2                !
 ! A75   A(21,22,27)           109.0584         estimate D2E/DX2                !
 ! A76   A(21,22,49)           110.6496         estimate D2E/DX2                !
 ! A77   A(23,22,27)           107.9843         estimate D2E/DX2                !
 ! A78   A(23,22,49)           109.3286         estimate D2E/DX2                !
 ! A79   A(27,22,49)           106.765          estimate D2E/DX2                !
 ! A80   A(22,23,24)           122.9046         estimate D2E/DX2                !
 ! A81   A(22,23,50)           115.74           estimate D2E/DX2                !
 ! A82   A(24,23,50)           121.3514         estimate D2E/DX2                !
 ! A83   A(23,24,25)           122.3665         estimate D2E/DX2                !
 ! A84   A(23,24,28)           122.745          estimate D2E/DX2                !
 ! A85   A(25,24,28)           114.8883         estimate D2E/DX2                !
 ! A86   A(20,25,24)           114.5845         estimate D2E/DX2                !
 ! A87   A(20,25,51)           108.1816         estimate D2E/DX2                !
 ! A88   A(20,25,52)           109.5596         estimate D2E/DX2                !
 ! A89   A(24,25,51)           108.7106         estimate D2E/DX2                !
 ! A90   A(24,25,52)           108.719          estimate D2E/DX2                !
 ! A91   A(51,25,52)           106.8028         estimate D2E/DX2                !
 ! A92   A(21,26,53)           104.9691         estimate D2E/DX2                !
 ! A93   A(22,27,54)           105.1701         estimate D2E/DX2                !
 ! A94   A(24,28,29)           111.7156         estimate D2E/DX2                !
 ! A95   A(24,28,30)           122.5962         estimate D2E/DX2                !
 ! A96   A(29,28,30)           125.6855         estimate D2E/DX2                !
 ! A97   A(28,29,31)           114.0921         estimate D2E/DX2                !
 ! A98   A(29,31,55)           108.0513         estimate D2E/DX2                !
 ! A99   A(29,31,56)           110.533          estimate D2E/DX2                !
 ! A100  A(29,31,57)           110.4972         estimate D2E/DX2                !
 ! A101  A(55,31,56)           108.4411         estimate D2E/DX2                !
 ! A102  A(55,31,57)           108.4487         estimate D2E/DX2                !
 ! A103  A(56,31,57)           110.7791         estimate D2E/DX2                !
 ! A104  A(12,32,33)           113.3405         estimate D2E/DX2                !
 ! A105  A(12,32,34)           126.5818         estimate D2E/DX2                !
 ! A106  A(33,32,34)           120.0625         estimate D2E/DX2                !
 ! A107  A(32,33,58)           104.9332         estimate D2E/DX2                !
 ! D1    D(6,1,2,3)              0.6655         estimate D2E/DX2                !
 ! D2    D(6,1,2,17)          -179.2065         estimate D2E/DX2                !
 ! D3    D(15,1,2,3)          -179.9172         estimate D2E/DX2                !
 ! D4    D(15,1,2,17)            0.2109         estimate D2E/DX2                !
 ! D5    D(2,1,6,5)             -0.5423         estimate D2E/DX2                !
 ! D6    D(2,1,6,16)           179.2968         estimate D2E/DX2                !
 ! D7    D(15,1,6,5)          -179.9594         estimate D2E/DX2                !
 ! D8    D(15,1,6,16)           -0.1203         estimate D2E/DX2                !
 ! D9    D(2,1,15,42)          176.8289         estimate D2E/DX2                !
 ! D10   D(2,1,15,43)          -63.1063         estimate D2E/DX2                !
 ! D11   D(2,1,15,44)           57.3436         estimate D2E/DX2                !
 ! D12   D(6,1,15,42)           -3.7762         estimate D2E/DX2                !
 ! D13   D(6,1,15,43)          116.2885         estimate D2E/DX2                !
 ! D14   D(6,1,15,44)         -123.2615         estimate D2E/DX2                !
 ! D15   D(1,2,3,4)             -0.0557         estimate D2E/DX2                !
 ! D16   D(1,2,3,35)          -179.7869         estimate D2E/DX2                !
 ! D17   D(17,2,3,4)           179.8254         estimate D2E/DX2                !
 ! D18   D(17,2,3,35)            0.0943         estimate D2E/DX2                !
 ! D19   D(1,2,17,46)            0.7858         estimate D2E/DX2                !
 ! D20   D(3,2,17,46)         -179.0935         estimate D2E/DX2                !
 ! D21   D(2,3,4,5)             -0.6821         estimate D2E/DX2                !
 ! D22   D(2,3,4,7)            179.8481         estimate D2E/DX2                !
 ! D23   D(35,3,4,5)           179.0377         estimate D2E/DX2                !
 ! D24   D(35,3,4,7)            -0.4321         estimate D2E/DX2                !
 ! D25   D(3,4,5,6)              0.7977         estimate D2E/DX2                !
 ! D26   D(3,4,5,10)          -178.7223         estimate D2E/DX2                !
 ! D27   D(7,4,5,6)           -179.7191         estimate D2E/DX2                !
 ! D28   D(7,4,5,10)             0.7609         estimate D2E/DX2                !
 ! D29   D(3,4,7,8)            177.2464         estimate D2E/DX2                !
 ! D30   D(3,4,7,11)            -2.907          estimate D2E/DX2                !
 ! D31   D(5,4,7,8)             -2.214          estimate D2E/DX2                !
 ! D32   D(5,4,7,11)           177.6326         estimate D2E/DX2                !
 ! D33   D(4,5,6,1)             -0.1903         estimate D2E/DX2                !
 ! D34   D(4,5,6,16)           179.9786         estimate D2E/DX2                !
 ! D35   D(10,5,6,1)           179.3286         estimate D2E/DX2                !
 ! D36   D(10,5,6,16)           -0.5025         estimate D2E/DX2                !
 ! D37   D(4,5,10,9)             1.28           estimate D2E/DX2                !
 ! D38   D(4,5,10,18)         -179.2566         estimate D2E/DX2                !
 ! D39   D(6,5,10,9)          -178.2436         estimate D2E/DX2                !
 ! D40   D(6,5,10,18)            1.2198         estimate D2E/DX2                !
 ! D41   D(1,6,16,45)          179.7943         estimate D2E/DX2                !
 ! D42   D(5,6,16,45)           -0.3676         estimate D2E/DX2                !
 ! D43   D(4,7,8,9)              1.6615         estimate D2E/DX2                !
 ! D44   D(4,7,8,14)          -177.3528         estimate D2E/DX2                !
 ! D45   D(11,7,8,9)          -178.1833         estimate D2E/DX2                !
 ! D46   D(11,7,8,14)            2.8024         estimate D2E/DX2                !
 ! D47   D(4,7,11,12)         -166.6096         estimate D2E/DX2                !
 ! D48   D(4,7,11,36)           70.2938         estimate D2E/DX2                !
 ! D49   D(4,7,11,37)          -46.134          estimate D2E/DX2                !
 ! D50   D(8,7,11,12)           13.2309         estimate D2E/DX2                !
 ! D51   D(8,7,11,36)         -109.8657         estimate D2E/DX2                !
 ! D52   D(8,7,11,37)          133.7066         estimate D2E/DX2                !
 ! D53   D(7,8,9,10)             0.4528         estimate D2E/DX2                !
 ! D54   D(14,8,9,10)          179.5599         estimate D2E/DX2                !
 ! D55   D(7,8,14,13)           13.5555         estimate D2E/DX2                !
 ! D56   D(7,8,14,40)         -109.1406         estimate D2E/DX2                !
 ! D57   D(7,8,14,41)          134.5243         estimate D2E/DX2                !
 ! D58   D(9,8,14,13)         -165.5456         estimate D2E/DX2                !
 ! D59   D(9,8,14,40)           71.7582         estimate D2E/DX2                !
 ! D60   D(9,8,14,41)          -44.5768         estimate D2E/DX2                !
 ! D61   D(8,9,10,5)            -1.9352         estimate D2E/DX2                !
 ! D62   D(8,9,10,18)          178.6108         estimate D2E/DX2                !
 ! D63   D(7,11,12,13)         -43.2244         estimate D2E/DX2                !
 ! D64   D(7,11,12,19)          77.3509         estimate D2E/DX2                !
 ! D65   D(7,11,12,32)        -160.6131         estimate D2E/DX2                !
 ! D66   D(36,11,12,13)         78.6867         estimate D2E/DX2                !
 ! D67   D(36,11,12,19)       -160.7381         estimate D2E/DX2                !
 ! D68   D(36,11,12,32)        -38.702          estimate D2E/DX2                !
 ! D69   D(37,11,12,13)       -164.4151         estimate D2E/DX2                !
 ! D70   D(37,11,12,19)        -43.8398         estimate D2E/DX2                !
 ! D71   D(37,11,12,32)         78.1962         estimate D2E/DX2                !
 ! D72   D(11,12,13,14)         59.9535         estimate D2E/DX2                !
 ! D73   D(11,12,13,38)        -60.9622         estimate D2E/DX2                !
 ! D74   D(11,12,13,39)       -177.3799         estimate D2E/DX2                !
 ! D75   D(19,12,13,14)        -56.2506         estimate D2E/DX2                !
 ! D76   D(19,12,13,38)       -177.1663         estimate D2E/DX2                !
 ! D77   D(19,12,13,39)         66.4159         estimate D2E/DX2                !
 ! D78   D(32,12,13,14)        174.9312         estimate D2E/DX2                !
 ! D79   D(32,12,13,38)         54.0155         estimate D2E/DX2                !
 ! D80   D(32,12,13,39)        -62.4023         estimate D2E/DX2                !
 ! D81   D(11,12,19,20)       -178.2816         estimate D2E/DX2                !
 ! D82   D(13,12,19,20)        -60.6557         estimate D2E/DX2                !
 ! D83   D(32,12,19,20)         65.4861         estimate D2E/DX2                !
 ! D84   D(11,12,32,33)        -63.7359         estimate D2E/DX2                !
 ! D85   D(11,12,32,34)        117.6944         estimate D2E/DX2                !
 ! D86   D(13,12,32,33)        179.9458         estimate D2E/DX2                !
 ! D87   D(13,12,32,34)          1.3761         estimate D2E/DX2                !
 ! D88   D(19,12,32,33)         52.3375         estimate D2E/DX2                !
 ! D89   D(19,12,32,34)       -126.2322         estimate D2E/DX2                !
 ! D90   D(12,13,14,8)         -45.704          estimate D2E/DX2                !
 ! D91   D(12,13,14,40)         76.242          estimate D2E/DX2                !
 ! D92   D(12,13,14,41)       -167.2562         estimate D2E/DX2                !
 ! D93   D(38,13,14,8)          75.6037         estimate D2E/DX2                !
 ! D94   D(38,13,14,40)       -162.4503         estimate D2E/DX2                !
 ! D95   D(38,13,14,41)        -45.9485         estimate D2E/DX2                !
 ! D96   D(39,13,14,8)        -169.7226         estimate D2E/DX2                !
 ! D97   D(39,13,14,40)        -47.7766         estimate D2E/DX2                !
 ! D98   D(39,13,14,41)         68.7252         estimate D2E/DX2                !
 ! D99   D(12,19,20,21)        162.4379         estimate D2E/DX2                !
 ! D100  D(12,19,20,25)        -78.0305         estimate D2E/DX2                !
 ! D101  D(12,19,20,47)         45.9898         estimate D2E/DX2                !
 ! D102  D(19,20,21,22)       -178.3068         estimate D2E/DX2                !
 ! D103  D(19,20,21,26)        -57.7045         estimate D2E/DX2                !
 ! D104  D(19,20,21,48)         58.633          estimate D2E/DX2                !
 ! D105  D(25,20,21,22)         59.8277         estimate D2E/DX2                !
 ! D106  D(25,20,21,26)       -179.57           estimate D2E/DX2                !
 ! D107  D(25,20,21,48)        -63.2325         estimate D2E/DX2                !
 ! D108  D(47,20,21,22)        -60.7334         estimate D2E/DX2                !
 ! D109  D(47,20,21,26)         59.8689         estimate D2E/DX2                !
 ! D110  D(47,20,21,48)        176.2063         estimate D2E/DX2                !
 ! D111  D(19,20,25,24)       -159.4857         estimate D2E/DX2                !
 ! D112  D(19,20,25,51)         79.0772         estimate D2E/DX2                !
 ! D113  D(19,20,25,52)        -37.0005         estimate D2E/DX2                !
 ! D114  D(21,20,25,24)        -41.8763         estimate D2E/DX2                !
 ! D115  D(21,20,25,51)       -163.3135         estimate D2E/DX2                !
 ! D116  D(21,20,25,52)         80.6088         estimate D2E/DX2                !
 ! D117  D(47,20,25,24)         77.0411         estimate D2E/DX2                !
 ! D118  D(47,20,25,51)        -44.3961         estimate D2E/DX2                !
 ! D119  D(47,20,25,52)       -160.4738         estimate D2E/DX2                !
 ! D120  D(20,21,22,23)        -47.2139         estimate D2E/DX2                !
 ! D121  D(20,21,22,27)       -167.2096         estimate D2E/DX2                !
 ! D122  D(20,21,22,49)         75.6404         estimate D2E/DX2                !
 ! D123  D(26,21,22,23)       -168.5418         estimate D2E/DX2                !
 ! D124  D(26,21,22,27)         71.4625         estimate D2E/DX2                !
 ! D125  D(26,21,22,49)        -45.6875         estimate D2E/DX2                !
 ! D126  D(48,21,22,23)         75.7791         estimate D2E/DX2                !
 ! D127  D(48,21,22,27)        -44.2166         estimate D2E/DX2                !
 ! D128  D(48,21,22,49)       -161.3666         estimate D2E/DX2                !
 ! D129  D(20,21,26,53)         53.4706         estimate D2E/DX2                !
 ! D130  D(22,21,26,53)        175.2181         estimate D2E/DX2                !
 ! D131  D(48,21,26,53)        -65.9047         estimate D2E/DX2                !
 ! D132  D(21,22,23,24)         16.3082         estimate D2E/DX2                !
 ! D133  D(21,22,23,50)       -162.9771         estimate D2E/DX2                !
 ! D134  D(27,22,23,24)        136.9196         estimate D2E/DX2                !
 ! D135  D(27,22,23,50)        -42.3656         estimate D2E/DX2                !
 ! D136  D(49,22,23,24)       -107.2799         estimate D2E/DX2                !
 ! D137  D(49,22,23,50)         73.4349         estimate D2E/DX2                !
 ! D138  D(21,22,27,54)        -50.7682         estimate D2E/DX2                !
 ! D139  D(23,22,27,54)       -173.7154         estimate D2E/DX2                !
 ! D140  D(49,22,27,54)         68.8183         estimate D2E/DX2                !
 ! D141  D(22,23,24,25)          1.8433         estimate D2E/DX2                !
 ! D142  D(22,23,24,28)       -178.3087         estimate D2E/DX2                !
 ! D143  D(50,23,24,25)       -178.9106         estimate D2E/DX2                !
 ! D144  D(50,23,24,28)          0.9374         estimate D2E/DX2                !
 ! D145  D(23,24,25,20)         11.7841         estimate D2E/DX2                !
 ! D146  D(23,24,25,51)        132.931          estimate D2E/DX2                !
 ! D147  D(23,24,25,52)       -111.1552         estimate D2E/DX2                !
 ! D148  D(28,24,25,20)       -168.075          estimate D2E/DX2                !
 ! D149  D(28,24,25,51)        -46.9281         estimate D2E/DX2                !
 ! D150  D(28,24,25,52)         68.9857         estimate D2E/DX2                !
 ! D151  D(23,24,28,29)         -5.0582         estimate D2E/DX2                !
 ! D152  D(23,24,28,30)        175.509          estimate D2E/DX2                !
 ! D153  D(25,24,28,29)        174.8003         estimate D2E/DX2                !
 ! D154  D(25,24,28,30)         -4.6325         estimate D2E/DX2                !
 ! D155  D(24,28,29,31)        179.9227         estimate D2E/DX2                !
 ! D156  D(30,28,29,31)         -0.6656         estimate D2E/DX2                !
 ! D157  D(28,29,31,55)       -179.6096         estimate D2E/DX2                !
 ! D158  D(28,29,31,56)        -61.0975         estimate D2E/DX2                !
 ! D159  D(28,29,31,57)         61.8898         estimate D2E/DX2                !
 ! D160  D(12,32,33,58)       -176.4352         estimate D2E/DX2                !
 ! D161  D(34,32,33,58)          2.2377         estimate D2E/DX2                !
 --------------------------------------------------------------------------------
 Trust Radius=3.00D-01 FncErr=1.00D-07 GrdErr=1.00D-06
 Number of steps in this run=    340 maximum allowed number of steps=    348.
 GradGradGradGradGradGradGradGradGradGradGradGradGradGradGradGradGradGrad

 Stoichiometry    C23H24O11
 Framework group  C1[X(C23H24O11)]
 Deg. of freedom   168
 Full point group                 C1      NOp   1
 Largest Abelian subgroup         C1      NOp   1
 Largest concise Abelian subgroup C1      NOp   1
                         Standard orientation:                         
 ---------------------------------------------------------------------
 Center     Atomic      Atomic             Coordinates (Angstroms)
 Number     Number       Type             X           Y           Z
 ---------------------------------------------------------------------
      1          6           0        5.862199   -0.678311   -1.198784
      2          6           0        4.900093   -1.687741   -1.295756
      3          6           0        3.652931   -1.571622   -0.676743
      4          6           0        3.316977   -0.434301    0.069598
      5          6           0        4.276118    0.579811    0.189647
      6          6           0        5.534545    0.457102   -0.441004
      7          6           0        2.007811   -0.285767    0.729334
      8          6           0        1.800826    0.815668    1.468783
      9          8           0        2.758284    1.837329    1.609866
     10          6           0        3.969748    1.784323    0.993418
     11          6           0        0.937255   -1.347994    0.567043
     12          6           0       -0.483890   -0.916967    1.036256
     13          6           0       -0.337471   -0.168632    2.375427
     14          6           0        0.540421    1.073591    2.243251
     15          6           0        7.201788   -0.809824   -1.869477
     16          8           0        6.494991    1.436088   -0.341122
     17          8           0        5.104673   -2.847523   -1.990503
     18          8           0        4.794308    2.688716    1.097668
     19          8           0       -0.999429   -0.075477   -0.010520
     20          6           0       -2.300104    0.520431    0.144621
     21          6           0       -2.363157    1.670748   -0.876061
     22          6           0       -3.702391    2.417144   -0.776155
     23          6           0       -4.877999    1.495927   -0.734510
     24          6           0       -4.768405    0.182133   -0.461189
     25          6           0       -3.446594   -0.466966   -0.132247
     26          8           0       -1.292426    2.600908   -0.640569
     27          8           0       -3.848232    3.265838   -1.912386
     28          6           0       -5.939640   -0.741410   -0.456564
     29          8           0       -7.104068   -0.075328   -0.647393
     30          8           0       -5.827105   -1.947268   -0.286993
     31          6           0       -8.260265   -0.912848   -0.653755
     32          6           0       -1.270943   -2.224234    1.257098
     33          8           0       -1.444409   -2.941326    0.127038
     34          8           0       -1.741939   -2.620624    2.311227
     35          1           0        2.958453   -2.399680   -0.794352
     36          1           0        1.261812   -2.241483    1.117890
     37          1           0        0.866563   -1.620747   -0.494563
     38          1           0        0.105872   -0.839397    3.125286
     39          1           0       -1.312359    0.121924    2.782717
     40          1           0       -0.016647    1.880841    1.755423
     41          1           0        0.794330    1.429140    3.249197
     42          1           0        7.829921    0.077947   -1.753840
     43          1           0        7.750730   -1.656586   -1.444429
     44          1           0        7.069281   -0.967465   -2.945141
     45          1           0        6.150847    2.176707    0.207183
     46          1           0        5.996239   -2.849610   -2.373428
     47          1           0       -2.392637    0.950588    1.147177
     48          1           0       -2.206387    1.291132   -1.894442
     49          1           0       -3.718385    3.066027    0.107360
     50          1           0       -5.841844    1.950054   -0.952430
     51          1           0       -3.575824   -1.097980    0.754010
     52          1           0       -3.166293   -1.133231   -0.957906
     53          1           0       -0.480255    2.056208   -0.639688
     54          1           0       -3.016598    3.775991   -1.958790
     55          1           0       -9.136229   -0.279919   -0.820587
     56          1           0       -8.200844   -1.643135   -1.466894
     57          1           0       -8.374849   -1.415328    0.311839
     58          1           0       -2.001207   -3.704217    0.394517
 ---------------------------------------------------------------------
 Rotational constants (GHZ):      0.2422892      0.0543012      0.0503886
 Standard basis: 6-31G(d) (6D, 7F)
 There are   558 symmetry adapted basis functions of A   symmetry.
 Integral buffers will be    131072 words long.
 Raffenetti 2 integral format.
 Two-electron integral symmetry is turned on.
   558 basis functions,  1048 primitive gaussians,   558 cartesian basis functions
   125 alpha electrons      125 beta electrons
       nuclear repulsion energy      3657.3466168352 Hartrees.
 NAtoms=   58 NActive=   58 NUniq=   58 SFac= 1.00D+00 NAtFMM=   50 NAOKFM=T Big=T
 One-electron integrals computed using PRISM.
 NBasis=   558 RedAO= T  NBF=   558
 NBsUse=   558 1.00D-06 NBFU=   558
 Harris functional with IExCor=  402 diagonalized for initial guess.
 ExpMin= 1.61D-01 ExpMax= 5.48D+03 ExpMxC= 8.25D+02 IAcc=1 IRadAn=         1 AccDes= 0.00D+00
 HarFok:  IExCor=  402 AccDes= 0.00D+00 IRadAn=         1 IDoV= 1
 ScaDFX=  1.000000  1.000000  1.000000  1.000000
 FoFCou: FMM=F IPFlag=           0 FMFlag=      100000 FMFlg1=        2001
         NFxFlg=           0 DoJE=T BraDBF=F KetDBF=T FulRan=T
         Omega=  0.000000  0.000000  1.000000  0.000000  0.000000 ICntrl=     500 IOpCl=  0
         NMat0=    1 NMatS0=    1 NMatT0=    0 NMatD0=    1 NMtDS0=    0 NMtDT0=    0
         I1Cent=           4 NGrid=           0.
 Petite list used in FoFCou.
 Initial guess orbital symmetries:
       Occupied  (A) (A) (A) (A) (A) (A) (A) (A) (A) (A) (A) (A)
                 (A) (A) (A) (A) (A) (A) (A) (A) (A) (A) (A) (A)
                 (A) (A) (A) (A) (A) (A) (A) (A) (A) (A) (A) (A)
                 (A) (A) (A) (A) (A) (A) (A) (A) (A) (A) (A) (A)
                 (A) (A) (A) (A) (A) (A) (A) (A) (A) (A) (A) (A)
                 (A) (A) (A) (A) (A) (A) (A) (A) (A) (A) (A) (A)
                 (A) (A) (A) (A) (A) (A) (A) (A) (A) (A) (A) (A)
                 (A) (A) (A) (A) (A) (A) (A) (A) (A) (A) (A) (A)
                 (A) (A) (A) (A) (A) (A) (A) (A) (A) (A) (A) (A)
                 (A) (A) (A) (A) (A) (A) (A) (A) (A) (A) (A) (A)
                 (A) (A) (A) (A) (A)
       Virtual   (A) (A) (A) (A) (A) (A) (A) (A) (A) (A) (A) (A)
                 (A) (A) (A) (A) (A) (A) (A) (A) (A) (A) (A) (A)
                 (A) (A) (A) (A) (A) (A) (A) (A) (A) (A) (A) (A)
                 (A) (A) (A) (A) (A) (A) (A) (A) (A) (A) (A) (A)
                 (A) (A) (A) (A) (A) (A) (A) (A) (A) (A) (A) (A)
                 (A) (A) (A) (A) (A) (A) (A) (A) (A) (A) (A) (A)
                 (A) (A) (A) (A) (A) (A) (A) (A) (A) (A) (A) (A)
                 (A) (A) (A) (A) (A) (A) (A) (A) (A) (A) (A) (A)
                 (A) (A) (A) (A) (A) (A) (A) (A) (A) (A) (A) (A)
                 (A) (A) (A) (A) (A) (A) (A) (A) (A) (A) (A) (A)
                 (A) (A) (A) (A) (A) (A) (A) (A) (A) (A) (A) (A)
                 (A) (A) (A) (A) (A) (A) (A) (A) (A) (A) (A) (A)
                 (A) (A) (A) (A) (A) (A) (A) (A) (A) (A) (A) (A)
                 (A) (A) (A) (A) (A) (A) (A) (A) (A) (A) (A) (A)
                 (A) (A) (A) (A) (A) (A) (A) (A) (A) (A) (A) (A)
                 (A) (A) (A) (A) (A) (A) (A) (A) (A) (A) (A) (A)
                 (A) (A) (A) (A) (A) (A) (A) (A) (A) (A) (A) (A)
                 (A) (A) (A) (A) (A) (A) (A) (A) (A) (A) (A) (A)
                 (A) (A) (A) (A) (A) (A) (A) (A) (A) (A) (A) (A)
                 (A) (A) (A) (A) (A) (A) (A) (A) (A) (A) (A) (A)
                 (A) (A) (A) (A) (A) (A) (A) (A) (A) (A) (A) (A)
                 (A) (A) (A) (A) (A) (A) (A) (A) (A) (A) (A) (A)
                 (A) (A) (A) (A) (A) (A) (A) (A) (A) (A) (A) (A)
                 (A) (A) (A) (A) (A) (A) (A) (A) (A) (A) (A) (A)
                 (A) (A) (A) (A) (A) (A) (A) (A) (A) (A) (A) (A)
                 (A) (A) (A) (A) (A) (A) (A) (A) (A) (A) (A) (A)
                 (A) (A) (A) (A) (A) (A) (A) (A) (A) (A) (A) (A)
                 (A) (A) (A) (A) (A) (A) (A) (A) (A) (A) (A) (A)
                 (A) (A) (A) (A) (A) (A) (A) (A) (A) (A) (A) (A)
                 (A) (A) (A) (A) (A) (A) (A) (A) (A) (A) (A) (A)
                 (A) (A) (A) (A) (A) (A) (A) (A) (A) (A) (A) (A)
                 (A) (A) (A) (A) (A) (A) (A) (A) (A) (A) (A) (A)
                 (A) (A) (A) (A) (A) (A) (A) (A) (A) (A) (A) (A)
                 (A) (A) (A) (A) (A) (A) (A) (A) (A) (A) (A) (A)
                 (A) (A) (A) (A) (A) (A) (A) (A) (A) (A) (A) (A)
                 (A) (A) (A) (A) (A) (A) (A) (A) (A) (A) (A) (A)
                 (A)
 The electronic state of the initial guess is 1-A.
 Requested convergence on RMS density matrix=1.00D-08 within 128 cycles.
 Requested convergence on MAX density matrix=1.00D-06.
 Requested convergence on             energy=1.00D-06.
 No special actions if energy rises.
 Integral accuracy reduced to 1.0D-05 until final iterations.
 Initial convergence to 1.0D-05 achieved.  Increase integral accuracy.
 SCF Done:  E(RB3LYP) =  -1718.35870228     A.U. after   15 cycles
             Convg  =    0.3959D-08             -V/T =  2.0091

 **********************************************************************

            Population analysis using the SCF density.

 **********************************************************************

 Orbital symmetries:
       Occupied  (A) (A) (A) (A) (A) (A) (A) (A) (A) (A) (A) (A)
                 (A) (A) (A) (A) (A) (A) (A) (A) (A) (A) (A) (A)
                 (A) (A) (A) (A) (A) (A) (A) (A) (A) (A) (A) (A)
                 (A) (A) (A) (A) (A) (A) (A) (A) (A) (A) (A) (A)
                 (A) (A) (A) (A) (A) (A) (A) (A) (A) (A) (A) (A)
                 (A) (A) (A) (A) (A) (A) (A) (A) (A) (A) (A) (A)
                 (A) (A) (A) (A) (A) (A) (A) (A) (A) (A) (A) (A)
                 (A) (A) (A) (A) (A) (A) (A) (A) (A) (A) (A) (A)
                 (A) (A) (A) (A) (A) (A) (A) (A) (A) (A) (A) (A)
                 (A) (A) (A) (A) (A) (A) (A) (A) (A) (A) (A) (A)
                 (A) (A) (A) (A) (A)
       Virtual   (A) (A) (A) (A) (A) (A) (A) (A) (A) (A) (A) (A)
                 (A) (A) (A) (A) (A) (A) (A) (A) (A) (A) (A) (A)
                 (A) (A) (A) (A) (A) (A) (A) (A) (A) (A) (A) (A)
                 (A) (A) (A) (A) (A) (A) (A) (A) (A) (A) (A) (A)
                 (A) (A) (A) (A) (A) (A) (A) (A) (A) (A) (A) (A)
                 (A) (A) (A) (A) (A) (A) (A) (A) (A) (A) (A) (A)
                 (A) (A) (A) (A) (A) (A) (A) (A) (A) (A) (A) (A)
                 (A) (A) (A) (A) (A) (A) (A) (A) (A) (A) (A) (A)
                 (A) (A) (A) (A) (A) (A) (A) (A) (A) (A) (A) (A)
                 (A) (A) (A) (A) (A) (A) (A) (A) (A) (A) (A) (A)
                 (A) (A) (A) (A) (A) (A) (A) (A) (A) (A) (A) (A)
                 (A) (A) (A) (A) (A) (A) (A) (A) (A) (A) (A) (A)
                 (A) (A) (A) (A) (A) (A) (A) (A) (A) (A) (A) (A)
                 (A) (A) (A) (A) (A) (A) (A) (A) (A) (A) (A) (A)
                 (A) (A) (A) (A) (A) (A) (A) (A) (A) (A) (A) (A)
                 (A) (A) (A) (A) (A) (A) (A) (A) (A) (A) (A) (A)
                 (A) (A) (A) (A) (A) (A) (A) (A) (A) (A) (A) (A)
                 (A) (A) (A) (A) (A) (A) (A) (A) (A) (A) (A) (A)
                 (A) (A) (A) (A) (A) (A) (A) (A) (A) (A) (A) (A)
                 (A) (A) (A) (A) (A) (A) (A) (A) (A) (A) (A) (A)
                 (A) (A) (A) (A) (A) (A) (A) (A) (A) (A) (A) (A)
                 (A) (A) (A) (A) (A) (A) (A) (A) (A) (A) (A) (A)
                 (A) (A) (A) (A) (A) (A) (A) (A) (A) (A) (A) (A)
                 (A) (A) (A) (A) (A) (A) (A) (A) (A) (A) (A) (A)
                 (A) (A) (A) (A) (A) (A) (A) (A) (A) (A) (A) (A)
                 (A) (A) (A) (A) (A) (A) (A) (A) (A) (A) (A) (A)
                 (A) (A) (A) (A) (A) (A) (A) (A) (A) (A) (A) (A)
                 (A) (A) (A) (A) (A) (A) (A) (A) (A) (A) (A) (A)
                 (A) (A) (A) (A) (A) (A) (A) (A) (A) (A) (A) (A)
                 (A) (A) (A) (A) (A) (A) (A) (A) (A) (A) (A) (A)
                 (A) (A) (A) (A) (A) (A) (A) (A) (A) (A) (A) (A)
                 (A) (A) (A) (A) (A) (A) (A) (A) (A) (A) (A) (A)
                 (A) (A) (A) (A) (A) (A) (A) (A) (A) (A) (A) (A)
                 (A) (A) (A) (A) (A) (A) (A) (A) (A) (A) (A) (A)
                 (A) (A) (A) (A) (A) (A) (A) (A) (A) (A) (A) (A)
                 (A) (A) (A) (A) (A) (A) (A) (A) (A) (A) (A) (A)
                 (A)
 The electronic state is 1-A.
 Alpha  occ. eigenvalues --  -19.22472 -19.21263 -19.20159 -19.19435 -19.18432
 Alpha  occ. eigenvalues --  -19.16511 -19.15858 -19.15812 -19.14768 -19.14419
 Alpha  occ. eigenvalues --  -19.14370 -10.33815 -10.33173 -10.32331 -10.28654
 Alpha  occ. eigenvalues --  -10.27279 -10.26708 -10.26594 -10.25803 -10.25190
 Alpha  occ. eigenvalues --  -10.24813 -10.24560 -10.22224 -10.21994 -10.21777
 Alpha  occ. eigenvalues --  -10.21758 -10.21178 -10.21134 -10.20951 -10.20554
 Alpha  occ. eigenvalues --  -10.20326 -10.20016 -10.19629 -10.19067  -1.12452
 Alpha  occ. eigenvalues --   -1.12036  -1.10743  -1.07399  -1.06258  -1.05290
 Alpha  occ. eigenvalues --   -1.03435  -1.02672  -1.02591  -1.02033  -1.01409
 Alpha  occ. eigenvalues --   -0.87921  -0.86087  -0.84655  -0.80798  -0.79350
 Alpha  occ. eigenvalues --   -0.76957  -0.76347  -0.75829  -0.74784  -0.72311
 Alpha  occ. eigenvalues --   -0.70776  -0.68917  -0.66176  -0.65408  -0.64240
 Alpha  occ. eigenvalues --   -0.64171  -0.63131  -0.61302  -0.59066  -0.57872
 Alpha  occ. eigenvalues --   -0.56763  -0.55613  -0.54884  -0.54525  -0.53244
 Alpha  occ. eigenvalues --   -0.52436  -0.51840  -0.50634  -0.50030  -0.49116
 Alpha  occ. eigenvalues --   -0.48973  -0.48916  -0.48714  -0.48019  -0.47410
 Alpha  occ. eigenvalues --   -0.47052  -0.46441  -0.45726  -0.45422  -0.44987
 Alpha  occ. eigenvalues --   -0.44696  -0.44097  -0.43859  -0.42889  -0.42713
 Alpha  occ. eigenvalues --   -0.42650  -0.41944  -0.41737  -0.41295  -0.40892
 Alpha  occ. eigenvalues --   -0.40800  -0.40339  -0.39765  -0.39598  -0.38895
 Alpha  occ. eigenvalues --   -0.38727  -0.38037  -0.37825  -0.37410  -0.37272
 Alpha  occ. eigenvalues --   -0.36319  -0.35722  -0.35322  -0.34903  -0.34685
 Alpha  occ. eigenvalues --   -0.33687  -0.33524  -0.33202  -0.33061  -0.30935
 Alpha  occ. eigenvalues --   -0.30533  -0.28528  -0.28310  -0.28033  -0.28008
 Alpha  occ. eigenvalues --   -0.27663  -0.26624  -0.26173  -0.23402  -0.21909
 Alpha virt. eigenvalues --   -0.04987  -0.04194  -0.02927  -0.02140   0.03657
 Alpha virt. eigenvalues --    0.05485   0.05565   0.06023   0.06206   0.07130
 Alpha virt. eigenvalues --    0.07573   0.09180   0.10258   0.10558   0.10743
 Alpha virt. eigenvalues --    0.11000   0.11594   0.12197   0.12716   0.13200
 Alpha virt. eigenvalues --    0.13474   0.13739   0.14699   0.15127   0.15223
 Alpha virt. eigenvalues --    0.15654   0.15736   0.16548   0.16702   0.17297
 Alpha virt. eigenvalues --    0.17328   0.17713   0.18191   0.18714   0.18833
 Alpha virt. eigenvalues --    0.19085   0.19592   0.20067   0.20773   0.21092
 Alpha virt. eigenvalues --    0.21259   0.22391   0.22959   0.23970   0.24293
 Alpha virt. eigenvalues --    0.24896   0.25777   0.26054   0.26587   0.27120
 Alpha virt. eigenvalues --    0.27366   0.28589   0.29229   0.31495   0.32012
 Alpha virt. eigenvalues --    0.32949   0.33796   0.34989   0.35815   0.37049
 Alpha virt. eigenvalues --    0.38795   0.40012   0.40252   0.41118   0.42774
 Alpha virt. eigenvalues --    0.43217   0.45433   0.46922   0.48520   0.49098
 Alpha virt. eigenvalues --    0.50317   0.50532   0.50935   0.51538   0.51782
 Alpha virt. eigenvalues --    0.52117   0.52709   0.53078   0.54221   0.54468
 Alpha virt. eigenvalues --    0.54694   0.55436   0.55695   0.56058   0.56324
 Alpha virt. eigenvalues --    0.56909   0.57421   0.57836   0.58221   0.58356
 Alpha virt. eigenvalues --    0.59219   0.59285   0.60574   0.61511   0.61735
 Alpha virt. eigenvalues --    0.62093   0.62798   0.63149   0.63683   0.64231
 Alpha virt. eigenvalues --    0.64633   0.65218   0.65526   0.66447   0.67129
 Alpha virt. eigenvalues --    0.67630   0.68265   0.69088   0.70104   0.70499
 Alpha virt. eigenvalues --    0.70701   0.71538   0.71642   0.72660   0.73104
 Alpha virt. eigenvalues --    0.73262   0.73893   0.74590   0.74823   0.75895
 Alpha virt. eigenvalues --    0.76322   0.76577   0.77182   0.78277   0.78326
 Alpha virt. eigenvalues --    0.78746   0.79206   0.80745   0.81559   0.82571
 Alpha virt. eigenvalues --    0.82795   0.83099   0.83836   0.84426   0.84522
 Alpha virt. eigenvalues --    0.84658   0.85166   0.85705   0.85892   0.86707
 Alpha virt. eigenvalues --    0.87261   0.87908   0.88234   0.89553   0.90107
 Alpha virt. eigenvalues --    0.90765   0.91041   0.91296   0.91573   0.92337
 Alpha virt. eigenvalues --    0.93141   0.93793   0.94087   0.94918   0.95279
 Alpha virt. eigenvalues --    0.95785   0.95962   0.96337   0.97038   0.97448
 Alpha virt. eigenvalues --    0.98409   0.98665   0.99505   0.99825   1.00253
 Alpha virt. eigenvalues --    1.01148   1.01390   1.01609   1.03043   1.03244
 Alpha virt. eigenvalues --    1.03752   1.04332   1.05462   1.06139   1.07280
 Alpha virt. eigenvalues --    1.08629   1.09107   1.09728   1.10243   1.11902
 Alpha virt. eigenvalues --    1.12365   1.12700   1.13016   1.14453   1.15449
 Alpha virt. eigenvalues --    1.15918   1.16490   1.17505   1.19160   1.19483
 Alpha virt. eigenvalues --    1.21455   1.22200   1.22273   1.22912   1.23954
 Alpha virt. eigenvalues --    1.24446   1.25292   1.26400   1.27294   1.28310
 Alpha virt. eigenvalues --    1.29861   1.31069   1.31257   1.32676   1.33665
 Alpha virt. eigenvalues --    1.33712   1.35139   1.36147   1.36874   1.37433
 Alpha virt. eigenvalues --    1.38076   1.38644   1.39052   1.40123   1.40591
 Alpha virt. eigenvalues --    1.41673   1.41841   1.43339   1.43701   1.44240
 Alpha virt. eigenvalues --    1.45067   1.45370   1.46872   1.47301   1.50049
 Alpha virt. eigenvalues --    1.50230   1.51909   1.54718   1.55869   1.56891
 Alpha virt. eigenvalues --    1.59068   1.61992   1.62474   1.63670   1.64051
 Alpha virt. eigenvalues --    1.64937   1.65754   1.66095   1.67293   1.68368
 Alpha virt. eigenvalues --    1.69248   1.70090   1.70626   1.70757   1.71038
 Alpha virt. eigenvalues --    1.71260   1.72205   1.72835   1.73156   1.74022
 Alpha virt. eigenvalues --    1.74260   1.75039   1.76177   1.76898   1.77832
 Alpha virt. eigenvalues --    1.78073   1.78479   1.79707   1.80777   1.80961
 Alpha virt. eigenvalues --    1.81175   1.81935   1.82001   1.82524   1.82978
 Alpha virt. eigenvalues --    1.83623   1.84770   1.85241   1.85696   1.86000
 Alpha virt. eigenvalues --    1.86648   1.87010   1.87868   1.88201   1.89941
 Alpha virt. eigenvalues --    1.90262   1.90616   1.91001   1.92127   1.93302
 Alpha virt. eigenvalues --    1.93629   1.93994   1.94246   1.94803   1.95912
 Alpha virt. eigenvalues --    1.96661   1.97530   1.98526   1.98602   2.00076
 Alpha virt. eigenvalues --    2.01277   2.01698   2.02390   2.02800   2.03519
 Alpha virt. eigenvalues --    2.04316   2.04433   2.05010   2.05954   2.06210
 Alpha virt. eigenvalues --    2.07020   2.07806   2.09021   2.09946   2.10460
 Alpha virt. eigenvalues --    2.12099   2.12460   2.13918   2.14443   2.16421
 Alpha virt. eigenvalues --    2.19049   2.19930   2.20256   2.21223   2.22859
 Alpha virt. eigenvalues --    2.23799   2.24787   2.26296   2.26905   2.27589
 Alpha virt. eigenvalues --    2.28132   2.28345   2.29740   2.30327   2.30438
 Alpha virt. eigenvalues --    2.31036   2.32472   2.32585   2.33487   2.33996
 Alpha virt. eigenvalues --    2.34254   2.35937   2.36235   2.37856   2.38421
 Alpha virt. eigenvalues --    2.39367   2.40046   2.42039   2.42755   2.43174
 Alpha virt. eigenvalues --    2.43558   2.44129   2.45570   2.47198   2.48109
 Alpha virt. eigenvalues --    2.48504   2.50496   2.51517   2.52117   2.53057
 Alpha virt. eigenvalues --    2.53774   2.54097   2.55925   2.57106   2.58194
 Alpha virt. eigenvalues --    2.58834   2.61106   2.61716   2.62692   2.63375
 Alpha virt. eigenvalues --    2.65110   2.66179   2.67401   2.68466   2.69047
 Alpha virt. eigenvalues --    2.69708   2.70573   2.71219   2.73474   2.74625
 Alpha virt. eigenvalues --    2.76366   2.76802   2.77458   2.78532   2.80586
 Alpha virt. eigenvalues --    2.83896   2.85235   2.85996   2.89286   2.91223
 Alpha virt. eigenvalues --    2.91553   2.93482   2.94628   2.96156   2.97180
 Alpha virt. eigenvalues --    2.98580   3.00645   3.01325   3.05062   3.06441
 Alpha virt. eigenvalues --    3.07198   3.10248   3.11568   3.13041   3.16127
 Alpha virt. eigenvalues --    3.21767   3.23089   3.41207   3.49748   3.75824
 Alpha virt. eigenvalues --    3.89405   3.92026   3.96323   3.96651   3.99209
 Alpha virt. eigenvalues --    4.05227   4.06488   4.07945   4.13680   4.17129
 Alpha virt. eigenvalues --    4.18198   4.18470   4.21855   4.23768   4.24501
 Alpha virt. eigenvalues --    4.25619   4.31421   4.32108   4.33148   4.35769
 Alpha virt. eigenvalues --    4.38782   4.47624   4.48559   4.50678   4.51592
 Alpha virt. eigenvalues --    4.53889   4.54491   4.57379   4.63530   4.71557
 Alpha virt. eigenvalues --    4.74102   4.80203   4.88162
          Condensed to atoms (all electrons):
 Mulliken atomic charges:
              1
     1  C    0.118053
     2  C    0.295430
     3  C   -0.274177
     4  C    0.125125
     5  C   -0.066453
     6  C    0.230067
     7  C    0.074264
     8  C    0.269726
     9  O   -0.512432
    10  C    0.635445
    11  C   -0.374047
    12  C    0.258495
    13  C   -0.301993
    14  C   -0.358019
    15  C   -0.575632
    16  O   -0.672003
    17  O   -0.642125
    18  O   -0.535133
    19  O   -0.550776
    20  C    0.120123
    21  C    0.086577
    22  C    0.106240
    23  C   -0.146971
    24  C    0.050675
    25  C   -0.369946
    26  O   -0.662664
    27  O   -0.640268
    28  C    0.613127
    29  O   -0.458922
    30  O   -0.492436
    31  C   -0.221204
    32  C    0.584963
    33  O   -0.564270
    34  O   -0.474281
    35  H    0.139598
    36  H    0.173664
    37  H    0.194157
    38  H    0.170596
    39  H    0.166051
    40  H    0.180227
    41  H    0.176362
    42  H    0.209062
    43  H    0.162406
    44  H    0.158399
    45  H    0.450325
    46  H    0.419576
    47  H    0.140636
    48  H    0.147279
    49  H    0.147590
    50  H    0.178051
    51  H    0.175442
    52  H    0.186812
    53  H    0.412937
    54  H    0.406903
    55  H    0.166637
    56  H    0.171364
    57  H    0.170878
    58  H    0.420489
 Sum of Mulliken atomic charges =   0.00000
 Mulliken charges with hydrogens summed into heavy atoms:
              1
     1  C    0.118053
     2  C    0.295430
     3  C   -0.134579
     4  C    0.125125
     5  C   -0.066453
     6  C    0.230067
     7  C    0.074264
     8  C    0.269726
     9  O   -0.512432
    10  C    0.635445
    11  C   -0.006225
    12  C    0.258495
    13  C    0.034653
    14  C   -0.001429
    15  C   -0.045765
    16  O   -0.221679
    17  O   -0.222549
    18  O   -0.535133
    19  O   -0.550776
    20  C    0.260759
    21  C    0.233855
    22  C    0.253830
    23  C    0.031079
    24  C    0.050675
    25  C   -0.007692
    26  O   -0.249726
    27  O   -0.233365
    28  C    0.613127
    29  O   -0.458922
    30  O   -0.492436
    31  C    0.287675
    32  C    0.584963
    33  O   -0.143781
    34  O   -0.474281
 Sum of Mulliken charges with hydrogens summed into heavy atoms =   0.00000
 Electronic spatial extent (au):  <R**2>=          20853.9921
 Charge=              0.0000 electrons
 Dipole moment (field-independent basis, Debye):
    X=             -1.2555    Y=             -2.8090    Z=             -0.7698  Tot=              3.1717
 Quadrupole moment (field-independent basis, Debye-Ang):
   XX=           -175.7852   YY=           -203.4505   ZZ=           -194.8427
   XY=            -17.5519   XZ=            -12.2673   YZ=              5.6802
 Traceless Quadrupole moment (field-independent basis, Debye-Ang):
   XX=             15.5743   YY=            -12.0910   ZZ=             -3.4832
   XY=            -17.5519   XZ=            -12.2673   YZ=              5.6802
 Octapole moment (field-independent basis, Debye-Ang**2):
  XXX=           -198.4549  YYY=            -39.2842  ZZZ=            -16.7525  XYY=             -6.9310
  XXY=           -129.1526  XXZ=            -92.1789  XZZ=             27.8138  YZZ=              2.6074
  YYZ=            -21.8219  XYZ=            -22.7944
 Hexadecapole moment (field-independent basis, Debye-Ang**3):
 XXXX=         -18183.3927 YYYY=          -3323.8042 ZZZZ=          -1860.8195 XXXY=           -457.8359
 XXXZ=           -446.5145 YYYX=              1.3420 YYYZ=            -33.8153 ZZZX=            -41.9813
 ZZZY=             82.7397 XXYY=          -4303.4973 XXZZ=          -3745.4847 YYZZ=           -936.1468
 XXYZ=            262.5860 YYXZ=           -107.8899 ZZXY=            -49.3750
 N-N= 3.657346616835D+03 E-N=-1.132789337068D+04  KE= 1.702829256631D+03
 Calling FoFJK, ICntrl=      2127 FMM=T ISym2X=0 I1Cent= 0 IOpClX= 0 NMat=1 NMatS=1 NMatT=0.
 ***** Axes restored to original set *****
 -------------------------------------------------------------------
 Center     Atomic                   Forces (Hartrees/Bohr)
 Number     Number              X              Y              Z
 -------------------------------------------------------------------
      1        6           0.005586594   -0.005499757   -0.004104962
      2        6          -0.005538682    0.004313362   -0.002282091
      3        6          -0.007447457    0.004026603   -0.004605909
      4        6          -0.014749718    0.013779284    0.011579342
      5        6           0.004040285   -0.008682864   -0.025634270
      6        6           0.020293203   -0.015526511   -0.000548111
      7        6           0.008485501   -0.008036122    0.008966201
      8        6           0.007720404   -0.002375197   -0.005416134
      9        8          -0.008596791    0.004962070   -0.005498172
     10        6           0.002732314    0.005951570    0.039104024
     11        6           0.000290209   -0.006729189    0.001749933
     12        6           0.017160367    0.003338720    0.002396466
     13        6          -0.000224593    0.003456928   -0.002739158
     14        6           0.004549730   -0.007825902   -0.001587912
     15        6          -0.000008354   -0.000711400    0.000441423
     16        8          -0.013446382    0.013054456    0.012795067
     17        8           0.003258295   -0.003114400   -0.001789563
     18        8          -0.006030930   -0.000408296   -0.024865509
     19        8          -0.001117331    0.007637966    0.000643751
     20        6          -0.011898160   -0.008131107    0.004312060
     21        6           0.018182945    0.006195574   -0.001695688
     22        6           0.003917549   -0.010697501    0.009086797
     23        6          -0.004081803    0.006431061    0.003514480
     24        6           0.004726102   -0.006471287   -0.005831218
     25        6           0.003413899    0.007071090    0.002082611
     26        8          -0.000812345    0.002254553   -0.003254383
     27        8           0.000750712   -0.006330381    0.002331431
     28        6           0.009597257   -0.000272601    0.001951879
     29        8          -0.000864441    0.006838303    0.003965157
     30        8          -0.006260790   -0.010698088   -0.008112746
     31        6          -0.010078239    0.002516246   -0.003034665
     32        6          -0.017466982    0.010452143   -0.009905213
     33        8           0.000856863   -0.002022710    0.003305446
     34        8           0.009091090   -0.012823054    0.003342311
     35        1           0.001617750   -0.001631409   -0.000220144
     36        1          -0.003574317    0.000873238    0.000065900
     37        1           0.000182538    0.003035408   -0.001811684
     38        1          -0.004403769   -0.001077052    0.002878752
     39        1          -0.000216624    0.001216103    0.001599224
     40        1          -0.000022319   -0.002517512   -0.001723913
     41        1           0.000952542   -0.002407602    0.000249231
     42        1          -0.002766734    0.002113154   -0.003506544
     43        1           0.001635543    0.000724120    0.004497491
     44        1           0.000348103    0.000382737    0.004576889
     45        1          -0.006531427    0.003948292   -0.004243069
     46        1           0.000314181   -0.000530628   -0.000782408
     47        1          -0.000513965   -0.000026691   -0.001528086
     48        1          -0.010071371    0.005465106   -0.002210142
     49        1           0.006966149    0.006346527   -0.002363498
     50        1           0.000509503    0.000770396    0.001736461
     51        1          -0.003978836    0.001377584    0.002204634
     52        1           0.002660192    0.001198829   -0.000136890
     53        1          -0.003670485   -0.003190721   -0.003324693
     54        1          -0.004067300    0.001086986   -0.001592257
     55        1           0.004446793   -0.003688283    0.000131558
     56        1           0.001892934    0.003210750   -0.000549082
     57        1           0.000044569    0.001026291    0.003653034
     58        1           0.002216032   -0.003629181    0.001736562
 -------------------------------------------------------------------
 Cartesian Forces:  Max     0.039104024 RMS     0.007160704

 GradGradGradGradGradGradGradGradGradGradGradGradGradGradGradGradGradGrad
 Berny optimization.
 Internal  Forces:  Max     0.027776454 RMS     0.004442104
 Search for a local minimum.
 Step number   1 out of a maximum of  340
 All quantities printed in internal units (Hartrees-Bohrs-Radians)
 Mixed Optimization -- RFO/linear search
 Second derivative matrix not updated -- first step.
 ITU=  0
     Eigenvalues ---    0.00230   0.00467   0.00498   0.00579   0.00596
     Eigenvalues ---    0.00707   0.00715   0.00878   0.01163   0.01175
     Eigenvalues ---    0.01181   0.01192   0.01205   0.01279   0.01298
     Eigenvalues ---    0.01326   0.01352   0.01366   0.01371   0.01419
     Eigenvalues ---    0.01510   0.01643   0.01716   0.01752   0.01801
     Eigenvalues ---    0.01906   0.01980   0.02022   0.02032   0.02096
     Eigenvalues ---    0.02105   0.02122   0.02124   0.02287   0.02359
     Eigenvalues ---    0.02788   0.03057   0.03416   0.03579   0.04058
     Eigenvalues ---    0.04349   0.04762   0.04795   0.04944   0.05042
     Eigenvalues ---    0.05146   0.05441   0.05736   0.05782   0.05882
     Eigenvalues ---    0.06069   0.06670   0.07055   0.07137   0.07330
     Eigenvalues ---    0.07844   0.08104   0.08196   0.08263   0.08288
     Eigenvalues ---    0.09452   0.09632   0.09665   0.09910   0.10000
     Eigenvalues ---    0.10112   0.10499   0.11860   0.12009   0.14319
     Eigenvalues ---    0.14613   0.15999   0.16000   0.16000   0.16000
     Eigenvalues ---    0.16000   0.16000   0.16000   0.16000   0.16000
     Eigenvalues ---    0.16000   0.16000   0.16000   0.16576   0.16715
     Eigenvalues ---    0.17030   0.18915   0.19297   0.19870   0.23025
     Eigenvalues ---    0.23526   0.24361   0.24990   0.24994   0.24996
     Eigenvalues ---    0.24998   0.24999   0.24999   0.24999   0.24999
     Eigenvalues ---    0.25000   0.25000   0.25000   0.25000   0.25000
     Eigenvalues ---    0.25000   0.25000   0.26538   0.27278   0.27565
     Eigenvalues ---    0.27805   0.28116   0.28359   0.28798   0.30327
     Eigenvalues ---    0.30877   0.31563   0.31975   0.32347   0.32666
     Eigenvalues ---    0.33279   0.33744   0.33829   0.33864   0.33895
     Eigenvalues ---    0.33976   0.34047   0.34093   0.34154   0.34174
     Eigenvalues ---    0.34193   0.34219   0.34242   0.34257   0.34292
     Eigenvalues ---    0.34295   0.34395   0.34411   0.34619   0.35100
     Eigenvalues ---    0.35149   0.38359   0.39713   0.39775   0.39896
     Eigenvalues ---    0.40833   0.41324   0.41616   0.43263   0.44374
     Eigenvalues ---    0.45211   0.45438   0.45920   0.49729   0.50221
     Eigenvalues ---    0.50700   0.51072   0.51491   0.51792   0.52023
     Eigenvalues ---    0.52673   0.53311   0.53568   0.53975   0.55112
     Eigenvalues ---    0.91586   0.94105   0.95066
 RFO step:  Lambda=-2.54556832D-02 EMin= 2.30000000D-03
 Linear search not attempted -- first point.
 Iteration  1 RMS(Cart)=  0.10951982 RMS(Int)=  0.00206125
 Iteration  2 RMS(Cart)=  0.00447230 RMS(Int)=  0.00037937
 Iteration  3 RMS(Cart)=  0.00001038 RMS(Int)=  0.00037934
 Iteration  4 RMS(Cart)=  0.00000002 RMS(Int)=  0.00037934
 Variable       Old X    -DE/DX   Delta X   Delta X   Delta X     New X
                                 (Linear)    (Quad)   (Total)
    R1        2.64156   0.00573   0.00000   0.01080   0.01110   2.65266
    R2        2.65286  -0.00141   0.00000  -0.00319  -0.00328   2.64958
    R3        2.84190   0.00373   0.00000   0.01082   0.01082   2.85272
    R4        2.64026   0.00146   0.00000   0.00223   0.00261   2.64288
    R5        2.58390  -0.00473   0.00000  -0.00876  -0.00876   2.57514
    R6        2.64790  -0.00500   0.00000  -0.01021  -0.01012   2.63779
    R7        2.05434  -0.00229   0.00000  -0.00608  -0.00608   2.04826
    R8        2.64750   0.01174   0.00000   0.02718   0.02656   2.67405
    R9        2.78453  -0.00976   0.00000  -0.02456  -0.02448   2.76005
   R10        2.67008   0.00132   0.00000   0.00498   0.00354   2.67362
   R11        2.79702  -0.01008   0.00000  -0.02504  -0.02628   2.77075
   R12        2.59853  -0.02778   0.00000  -0.05248  -0.05273   2.54580
   R13        2.53730   0.00360   0.00000   0.00768   0.00803   2.54533
   R14        2.86638  -0.00236   0.00000  -0.00665  -0.00662   2.85976
   R15        2.65936  -0.01907   0.00000  -0.04233  -0.04200   2.61737
   R16        2.83770  -0.00509   0.00000  -0.01106  -0.01114   2.82657
   R17        2.57063  -0.00246   0.00000  -0.00533  -0.00538   2.56524
   R18        2.32113  -0.00085   0.00000  -0.00108  -0.00097   2.32016
   R19        2.94312  -0.00400   0.00000  -0.01816  -0.01809   2.92504
   R20        2.07620  -0.00031   0.00000  -0.00085  -0.00085   2.07535
   R21        2.07560  -0.00246   0.00000  -0.00674  -0.00674   2.06886
   R22        2.91215  -0.00140   0.00000  -0.00711  -0.00705   2.90510
   R23        2.71860  -0.00822   0.00000  -0.01942  -0.01942   2.69917
   R24        2.91359  -0.00385   0.00000  -0.01246  -0.01246   2.90113
   R25        2.88534   0.00459   0.00000   0.01315   0.01312   2.89845
   R26        2.07764  -0.00320   0.00000  -0.00883  -0.00883   2.06881
   R27        2.07071  -0.00115   0.00000  -0.00312  -0.00312   2.06758
   R28        2.07005   0.00259   0.00000   0.00706   0.00706   2.07711
   R29        2.07252  -0.00002   0.00000  -0.00006  -0.00006   2.07246
   R30        2.06669  -0.00267   0.00000  -0.00722  -0.00722   2.05947
   R31        2.06924   0.00295   0.00000   0.00802   0.00802   2.07726
   R32        2.06963   0.00291   0.00000   0.00792   0.00792   2.07755
   R33        1.85885   0.00483   0.00000   0.00813   0.00913   1.86799
   R34        1.83364  -0.00023   0.00000  -0.00040  -0.00040   1.83324
   R35        3.21549   0.00332   0.00000   0.02711   0.02823   3.24372
   R36        2.71946  -0.00199   0.00000  -0.00472  -0.00472   2.71474
   R37        2.90858  -0.00762   0.00000  -0.02241  -0.02242   2.88616
   R38        2.90677  -0.00012   0.00000  -0.00312  -0.00308   2.90369
   R39        2.06898   0.00114   0.00000   0.00311   0.00311   2.07209
   R40        2.90344  -0.00821   0.00000  -0.02716  -0.02715   2.87630
   R41        2.71695  -0.00281   0.00000  -0.00661  -0.00661   2.71034
   R42        2.07507   0.00044   0.00000   0.00122   0.00122   2.07629
   R43        2.82350   0.00350   0.00000   0.01121   0.01119   2.83469
   R44        2.69415   0.00607   0.00000   0.01375   0.01375   2.70790
   R45        2.07173   0.00498   0.00000   0.01358   0.01358   2.08531
   R46        2.54431  -0.00444   0.00000  -0.00709  -0.00712   2.53720
   R47        2.05513  -0.00156   0.00000  -0.00414  -0.00414   2.05099
   R48        2.85137   0.00268   0.00000   0.00725   0.00725   2.85862
   R49        2.81864   0.00051   0.00000   0.00141   0.00141   2.82005
   R50        2.07038  -0.00004   0.00000  -0.00011  -0.00011   2.07026
   R51        2.07370  -0.00067   0.00000  -0.00185  -0.00185   2.07186
   R52        1.84799  -0.00579   0.00000  -0.01065  -0.01065   1.83735
   R53        1.84577  -0.00423   0.00000  -0.00776  -0.00776   1.83802
   R54        2.56054  -0.00326   0.00000  -0.00576  -0.00576   2.55478
   R55        2.31097  -0.01280   0.00000  -0.01325  -0.01325   2.29772
   R56        2.69793   0.00474   0.00000   0.01080   0.01080   2.70873
   R57        2.06642  -0.00111   0.00000  -0.00299  -0.00299   2.06342
   R58        2.06840  -0.00080   0.00000  -0.00218  -0.00218   2.06623
   R59        2.06836  -0.00072   0.00000  -0.00196  -0.00196   2.06639
   R60        2.55032   0.00218   0.00000   0.00378   0.00378   2.55410
   R61        2.30682  -0.01213   0.00000  -0.01242  -0.01242   2.29440
   R62        1.85499  -0.00437   0.00000  -0.00815  -0.00815   1.84684
    A1        2.04976  -0.00049   0.00000  -0.00141  -0.00185   2.04790
    A2        2.11648  -0.00100   0.00000  -0.00378  -0.00356   2.11291
    A3        2.11691   0.00148   0.00000   0.00522   0.00544   2.12234
    A4        2.12190   0.00438   0.00000   0.01539   0.01542   2.13732
    A5        2.14692  -0.00719   0.00000  -0.02585  -0.02586   2.12106
    A6        2.01436   0.00281   0.00000   0.01046   0.01045   2.02481
    A7        2.11468  -0.00603   0.00000  -0.02269  -0.02286   2.09182
    A8        2.04767   0.00293   0.00000   0.01087   0.01096   2.05863
    A9        2.12083   0.00310   0.00000   0.01181   0.01190   2.13272
   A10        2.05899   0.00587   0.00000   0.02250   0.02208   2.08106
   A11        2.13331   0.00376   0.00000   0.00758   0.00842   2.14174
   A12        2.09085  -0.00963   0.00000  -0.03008  -0.03049   2.06036
   A13        2.10439  -0.00392   0.00000  -0.01518  -0.01430   2.09010
   A14        2.08735   0.00292   0.00000   0.01145   0.01234   2.09970
   A15        2.09141   0.00100   0.00000   0.00374   0.00196   2.09337
   A16        2.11653   0.00018   0.00000   0.00144   0.00156   2.11809
   A17        2.03981   0.00501   0.00000   0.01369   0.01548   2.05529
   A18        2.12684  -0.00519   0.00000  -0.01513  -0.01703   2.10981
   A19        2.05582   0.00430   0.00000   0.01743   0.01738   2.07320
   A20        2.10432  -0.00137   0.00000  -0.00724  -0.00721   2.09712
   A21        2.12303  -0.00293   0.00000  -0.01020  -0.01017   2.11286
   A22        2.14823   0.00137   0.00000   0.00054   0.00073   2.14896
   A23        2.15835   0.00674   0.00000   0.03092   0.03071   2.18906
   A24        1.97650  -0.00809   0.00000  -0.03126  -0.03133   1.94517
   A25        2.13199   0.00057   0.00000  -0.00115  -0.00161   2.13038
   A26        2.05120   0.00049   0.00000   0.00200   0.00182   2.05303
   A27        2.10172   0.02567   0.00000   0.09564   0.09443   2.19616
   A28        2.13022  -0.02616   0.00000  -0.09762  -0.09624   2.03398
   A29        2.00202  -0.00156   0.00000  -0.01593  -0.01579   1.98623
   A30        1.88323   0.00301   0.00000   0.02685   0.02682   1.91005
   A31        1.89942   0.00155   0.00000   0.01451   0.01431   1.91373
   A32        1.92152  -0.00199   0.00000  -0.01187  -0.01187   1.90965
   A33        1.87673   0.00003   0.00000  -0.00268  -0.00259   1.87415
   A34        1.87723  -0.00103   0.00000  -0.01092  -0.01119   1.86604
   A35        1.88546   0.00384   0.00000   0.02869   0.02844   1.91391
   A36        1.84384  -0.00209   0.00000  -0.01909  -0.01903   1.82481
   A37        1.84866   0.00086   0.00000   0.01875   0.01824   1.86690
   A38        1.96309   0.00052   0.00000   0.00080   0.00100   1.96409
   A39        1.91321  -0.00034   0.00000   0.00689   0.00616   1.91937
   A40        2.00120  -0.00238   0.00000  -0.03185  -0.03173   1.96947
   A41        1.95463  -0.00033   0.00000  -0.00829  -0.00794   1.94669
   A42        1.91213  -0.00384   0.00000  -0.02540  -0.02544   1.88668
   A43        1.94683   0.00063   0.00000  -0.00207  -0.00211   1.94472
   A44        1.90028   0.00422   0.00000   0.02833   0.02810   1.92838
   A45        1.90496  -0.00062   0.00000   0.00766   0.00749   1.91245
   A46        1.84110   0.00007   0.00000   0.00126   0.00096   1.84206
   A47        1.96872  -0.00548   0.00000  -0.02443  -0.02443   1.94429
   A48        1.90047   0.00102   0.00000   0.00556   0.00564   1.90611
   A49        1.91178   0.00089   0.00000  -0.00417  -0.00398   1.90780
   A50        1.92379   0.00247   0.00000   0.01412   0.01417   1.93796
   A51        1.89386   0.00304   0.00000   0.01832   0.01814   1.91200
   A52        1.86220  -0.00176   0.00000  -0.00873  -0.00889   1.85331
   A53        1.97519  -0.00755   0.00000  -0.04190  -0.04164   1.93355
   A54        1.91885   0.00528   0.00000   0.02859   0.02850   1.94734
   A55        1.92073   0.00453   0.00000   0.02550   0.02540   1.94613
   A56        1.87419   0.00049   0.00000   0.00063   0.00088   1.87507
   A57        1.86521   0.00136   0.00000   0.00707   0.00731   1.87253
   A58        1.90773  -0.00441   0.00000  -0.02138  -0.02180   1.88593
   A59        1.90939  -0.01944   0.00000  -0.10102  -0.10194   1.80745
   A60        1.91752  -0.00177   0.00000  -0.00954  -0.00954   1.90798
   A61        2.08021   0.00425   0.00000   0.01542   0.01542   2.09563
   A62        1.84940  -0.00467   0.00000  -0.02960  -0.02992   1.81948
   A63        1.96974   0.00118   0.00000   0.01604   0.01628   1.98602
   A64        1.91537   0.00098   0.00000  -0.00056  -0.00092   1.91446
   A65        1.90695   0.00538   0.00000   0.02791   0.02797   1.93491
   A66        1.88614  -0.00211   0.00000  -0.01192  -0.01204   1.87410
   A67        1.93267  -0.00099   0.00000  -0.00376  -0.00365   1.92902
   A68        1.93441   0.00280   0.00000   0.00955   0.00972   1.94413
   A69        1.92238   0.00441   0.00000   0.02239   0.02233   1.94472
   A70        1.92921  -0.00346   0.00000  -0.01863  -0.01947   1.90974
   A71        1.90096  -0.00780   0.00000  -0.03799  -0.03794   1.86303
   A72        1.93124  -0.00124   0.00000  -0.03363  -0.03353   1.89771
   A73        1.84340   0.00533   0.00000   0.06015   0.05983   1.90323
   A74        1.96939  -0.00291   0.00000  -0.01696  -0.01729   1.95210
   A75        1.90343   0.00440   0.00000   0.02562   0.02572   1.92915
   A76        1.93120  -0.00397   0.00000  -0.03776  -0.03810   1.89310
   A77        1.88468  -0.00054   0.00000  -0.00006   0.00011   1.88480
   A78        1.90814   0.00146   0.00000   0.00187   0.00095   1.90909
   A79        1.86340   0.00193   0.00000   0.03113   0.03142   1.89482
   A80        2.14509   0.00125   0.00000   0.01020   0.01014   2.15523
   A81        2.02004   0.00003   0.00000  -0.00154  -0.00151   2.01853
   A82        2.11798  -0.00128   0.00000  -0.00861  -0.00858   2.10940
   A83        2.13570   0.00291   0.00000   0.01242   0.01237   2.14806
   A84        2.14230  -0.00215   0.00000  -0.00872  -0.00871   2.13359
   A85        2.00518  -0.00076   0.00000  -0.00368  -0.00367   2.00151
   A86        1.99988  -0.00785   0.00000  -0.03677  -0.03668   1.96320
   A87        1.88813   0.00544   0.00000   0.03707   0.03716   1.92529
   A88        1.91218   0.00046   0.00000  -0.00599  -0.00596   1.90621
   A89        1.89736   0.00114   0.00000  -0.00121  -0.00089   1.89647
   A90        1.89750   0.00357   0.00000   0.02176   0.02156   1.91907
   A91        1.86406  -0.00249   0.00000  -0.01381  -0.01383   1.85023
   A92        1.83206   0.00053   0.00000   0.00285   0.00285   1.83491
[...]
     54          1           0       -2.691292    3.881608   -1.616474
     55          1           0       -9.050311    0.146133   -1.111110
     56          1           0       -8.215366   -1.325194   -1.711946
     57          1           0       -8.474998   -1.110592    0.035129
     58          1           0       -1.943260   -3.845525    0.331307
 ---------------------------------------------------------------------
 Rotational constants (GHZ):      0.2407950      0.0555481      0.0516603

 **********************************************************************

            Population analysis using the SCF density.

 **********************************************************************

 Orbital symmetries:
       Occupied  (A) (A) (A) (A) (A) (A) (A) (A) (A) (A) (A) (A)
                 (A) (A) (A) (A) (A) (A) (A) (A) (A) (A) (A) (A)
                 (A) (A) (A) (A) (A) (A) (A) (A) (A) (A) (A) (A)
                 (A) (A) (A) (A) (A) (A) (A) (A) (A) (A) (A) (A)
                 (A) (A) (A) (A) (A) (A) (A) (A) (A) (A) (A) (A)
                 (A) (A) (A) (A) (A) (A) (A) (A) (A) (A) (A) (A)
                 (A) (A) (A) (A) (A) (A) (A) (A) (A) (A) (A) (A)
                 (A) (A) (A) (A) (A) (A) (A) (A) (A) (A) (A) (A)
                 (A) (A) (A) (A) (A) (A) (A) (A) (A) (A) (A) (A)
                 (A) (A) (A) (A) (A) (A) (A) (A) (A) (A) (A) (A)
                 (A) (A) (A) (A) (A)
       Virtual   (A) (A) (A) (A) (A) (A) (A) (A) (A) (A) (A) (A)
                 (A) (A) (A) (A) (A) (A) (A) (A) (A) (A) (A) (A)
                 (A) (A) (A) (A) (A) (A) (A) (A) (A) (A) (A) (A)
                 (A) (A) (A) (A) (A) (A) (A) (A) (A) (A) (A) (A)
                 (A) (A) (A) (A) (A) (A) (A) (A) (A) (A) (A) (A)
                 (A) (A) (A) (A) (A) (A) (A) (A) (A) (A) (A) (A)
                 (A) (A) (A) (A) (A) (A) (A) (A) (A) (A) (A) (A)
                 (A) (A) (A) (A) (A) (A) (A) (A) (A) (A) (A) (A)
                 (A) (A) (A) (A) (A) (A) (A) (A) (A) (A) (A) (A)
                 (A) (A) (A) (A) (A) (A) (A) (A) (A) (A) (A) (A)
                 (A) (A) (A) (A) (A) (A) (A) (A) (A) (A) (A) (A)
                 (A) (A) (A) (A) (A) (A) (A) (A) (A) (A) (A) (A)
                 (A) (A) (A) (A) (A) (A) (A) (A) (A) (A) (A) (A)
                 (A) (A) (A) (A) (A) (A) (A) (A) (A) (A) (A) (A)
                 (A) (A) (A) (A) (A) (A) (A) (A) (A) (A) (A) (A)
                 (A) (A) (A) (A) (A) (A) (A) (A) (A) (A) (A) (A)
                 (A) (A) (A) (A) (A) (A) (A) (A) (A) (A) (A) (A)
                 (A) (A) (A) (A) (A) (A) (A) (A) (A) (A) (A) (A)
                 (A) (A) (A) (A) (A) (A) (A) (A) (A) (A) (A) (A)
                 (A) (A) (A) (A) (A) (A) (A) (A) (A) (A) (A) (A)
                 (A) (A) (A) (A) (A) (A) (A) (A) (A) (A) (A) (A)
                 (A) (A) (A) (A) (A) (A) (A) (A) (A) (A) (A) (A)
                 (A) (A) (A) (A) (A) (A) (A) (A) (A) (A) (A) (A)
                 (A) (A) (A) (A) (A) (A) (A) (A) (A) (A) (A) (A)
                 (A) (A) (A) (A) (A) (A) (A) (A) (A) (A) (A) (A)
                 (A) (A) (A) (A) (A) (A) (A) (A) (A) (A) (A) (A)
                 (A) (A) (A) (A) (A) (A) (A) (A) (A) (A) (A) (A)
                 (A) (A) (A) (A) (A) (A) (A) (A) (A) (A) (A) (A)
                 (A) (A) (A) (A) (A) (A) (A) (A) (A) (A) (A) (A)
                 (A) (A) (A) (A) (A) (A) (A) (A) (A) (A) (A) (A)
                 (A) (A) (A) (A) (A) (A) (A) (A) (A) (A) (A) (A)
                 (A) (A) (A) (A) (A) (A) (A) (A) (A) (A) (A) (A)
                 (A) (A) (A) (A) (A) (A) (A) (A) (A) (A) (A) (A)
                 (A) (A) (A) (A) (A) (A) (A) (A) (A) (A) (A) (A)
                 (A) (A) (A) (A) (A) (A) (A) (A) (A) (A) (A) (A)
                 (A) (A) (A) (A) (A) (A) (A) (A) (A) (A) (A) (A)
                 (A)
 The electronic state is 1-A.
 Alpha  occ. eigenvalues --  -19.22059 -19.21356 -19.19664 -19.19564 -19.17731
 Alpha  occ. eigenvalues --  -19.17353 -19.16233 -19.15912 -19.14913 -19.14299
 Alpha  occ. eigenvalues --  -19.13879 -10.33539 -10.32823 -10.31854 -10.27951
 Alpha  occ. eigenvalues --  -10.27108 -10.27073 -10.26985 -10.25510 -10.25066
 Alpha  occ. eigenvalues --  -10.24544 -10.24364 -10.22551 -10.21615 -10.21460
 Alpha  occ. eigenvalues --  -10.21393 -10.20991 -10.20894 -10.20747 -10.20628
 Alpha  occ. eigenvalues --  -10.20407 -10.20001 -10.19944 -10.19248  -1.12472
 Alpha  occ. eigenvalues --   -1.12420  -1.10470  -1.07925  -1.06718  -1.06135
 Alpha  occ. eigenvalues --   -1.03802  -1.03332  -1.02875  -1.01728  -1.01562
 Alpha  occ. eigenvalues --   -0.87891  -0.86058  -0.84585  -0.80826  -0.79200
 Alpha  occ. eigenvalues --   -0.76993  -0.76373  -0.76180  -0.74663  -0.72211
 Alpha  occ. eigenvalues --   -0.70886  -0.68830  -0.66314  -0.66036  -0.64094
 Alpha  occ. eigenvalues --   -0.64048  -0.63247  -0.61485  -0.58790  -0.57763
 Alpha  occ. eigenvalues --   -0.57110  -0.55738  -0.55176  -0.54332  -0.53466
 Alpha  occ. eigenvalues --   -0.52807  -0.51795  -0.50906  -0.50181  -0.49283
 Alpha  occ. eigenvalues --   -0.49074  -0.48708  -0.48455  -0.47947  -0.47218
 Alpha  occ. eigenvalues --   -0.46893  -0.46407  -0.45715  -0.45388  -0.44932
 Alpha  occ. eigenvalues --   -0.44555  -0.43861  -0.43671  -0.43256  -0.42539
 Alpha  occ. eigenvalues --   -0.42376  -0.41961  -0.41699  -0.41312  -0.41135
 Alpha  occ. eigenvalues --   -0.40746  -0.40387  -0.39904  -0.39861  -0.39363
 Alpha  occ. eigenvalues --   -0.38773  -0.38036  -0.37756  -0.37497  -0.37185
 Alpha  occ. eigenvalues --   -0.36236  -0.35701  -0.35466  -0.35154  -0.34743
 Alpha  occ. eigenvalues --   -0.33938  -0.33510  -0.33403  -0.33373  -0.30529
 Alpha  occ. eigenvalues --   -0.30474  -0.28714  -0.28538  -0.28457  -0.27642
 Alpha  occ. eigenvalues --   -0.27319  -0.26475  -0.26080  -0.23562  -0.21855
 Alpha virt. eigenvalues --   -0.04686  -0.04663  -0.02909  -0.01703   0.03826
 Alpha virt. eigenvalues --    0.05557   0.05606   0.06179   0.06424   0.07412
 Alpha virt. eigenvalues --    0.07887   0.09533   0.10381   0.10903   0.11045
 Alpha virt. eigenvalues --    0.11590   0.12132   0.12640   0.12669   0.13482
 Alpha virt. eigenvalues --    0.13858   0.14066   0.14889   0.15370   0.15493
 Alpha virt. eigenvalues --    0.15865   0.16173   0.16528   0.16737   0.17476
 Alpha virt. eigenvalues --    0.17605   0.17885   0.18400   0.18863   0.19158
 Alpha virt. eigenvalues --    0.19400   0.19936   0.20437   0.20881   0.21259
 Alpha virt. eigenvalues --    0.21533   0.22546   0.23161   0.24031   0.24302
 Alpha virt. eigenvalues --    0.25588   0.26287   0.26865   0.27198   0.27784
 Alpha virt. eigenvalues --    0.27994   0.28831   0.29619   0.31659   0.32209
 Alpha virt. eigenvalues --    0.33131   0.33589   0.34743   0.36017   0.37573
 Alpha virt. eigenvalues --    0.39356   0.40056   0.40170   0.41006   0.43233
 Alpha virt. eigenvalues --    0.43546   0.45452   0.46921   0.48508   0.49174
 Alpha virt. eigenvalues --    0.50494   0.50689   0.51161   0.51489   0.51698
 Alpha virt. eigenvalues --    0.52087   0.52731   0.53240   0.53859   0.54493
 Alpha virt. eigenvalues --    0.54606   0.55397   0.55813   0.56032   0.56237
 Alpha virt. eigenvalues --    0.56686   0.57373   0.57890   0.58380   0.58500
 Alpha virt. eigenvalues --    0.59404   0.59656   0.60295   0.61479   0.62065
 Alpha virt. eigenvalues --    0.62283   0.62512   0.63392   0.63721   0.64245
 Alpha virt. eigenvalues --    0.65091   0.65222   0.65656   0.66405   0.67218
 Alpha virt. eigenvalues --    0.68010   0.68821   0.68883   0.69694   0.70197
 Alpha virt. eigenvalues --    0.70773   0.71292   0.71682   0.71974   0.72675
 Alpha virt. eigenvalues --    0.73252   0.73804   0.74276   0.74803   0.75695
 Alpha virt. eigenvalues --    0.76118   0.76799   0.77146   0.78251   0.78652
 Alpha virt. eigenvalues --    0.79218   0.79774   0.80866   0.82020   0.82570
 Alpha virt. eigenvalues --    0.82936   0.83599   0.83999   0.84419   0.84474
 Alpha virt. eigenvalues --    0.84636   0.85228   0.86043   0.86485   0.86802
 Alpha virt. eigenvalues --    0.87012   0.87841   0.88765   0.89875   0.90616
 Alpha virt. eigenvalues --    0.90952   0.91081   0.91563   0.92228   0.92815
 Alpha virt. eigenvalues --    0.92972   0.93845   0.94054   0.94690   0.95416
 Alpha virt. eigenvalues --    0.95694   0.96216   0.96448   0.97393   0.98034
 Alpha virt. eigenvalues --    0.98478   0.98896   0.99599   1.00285   1.00737
 Alpha virt. eigenvalues --    1.01497   1.01672   1.01900   1.03338   1.03574
 Alpha virt. eigenvalues --    1.04039   1.04612   1.05240   1.06491   1.08062
 Alpha virt. eigenvalues --    1.08339   1.09012   1.09903   1.10720   1.11774
 Alpha virt. eigenvalues --    1.12420   1.13293   1.13321   1.14946   1.15676
 Alpha virt. eigenvalues --    1.16660   1.17082   1.18510   1.18769   1.20247
 Alpha virt. eigenvalues --    1.21740   1.22147   1.22806   1.23917   1.24263
 Alpha virt. eigenvalues --    1.25212   1.26000   1.26386   1.27661   1.28954
 Alpha virt. eigenvalues --    1.29755   1.31073   1.32232   1.33578   1.33926
 Alpha virt. eigenvalues --    1.34011   1.35092   1.36319   1.36757   1.37750
 Alpha virt. eigenvalues --    1.38380   1.38489   1.39960   1.40382   1.40615
 Alpha virt. eigenvalues --    1.42103   1.42825   1.43040   1.43716   1.44363
 Alpha virt. eigenvalues --    1.44939   1.45746   1.47059   1.47478   1.51115
 Alpha virt. eigenvalues --    1.51601   1.53450   1.55601   1.57160   1.57800
 Alpha virt. eigenvalues --    1.59633   1.62074   1.62526   1.64154   1.64918
 Alpha virt. eigenvalues --    1.65826   1.66385   1.66781   1.67413   1.68377
 Alpha virt. eigenvalues --    1.69831   1.70162   1.70695   1.70799   1.70813
 Alpha virt. eigenvalues --    1.71406   1.71863   1.72816   1.73697   1.73777
 Alpha virt. eigenvalues --    1.74629   1.75292   1.76122   1.76854   1.77508
 Alpha virt. eigenvalues --    1.77807   1.78520   1.79572   1.80611   1.80857
 Alpha virt. eigenvalues --    1.81268   1.81982   1.82332   1.82683   1.83608
 Alpha virt. eigenvalues --    1.84064   1.85110   1.85589   1.85842   1.86230
 Alpha virt. eigenvalues --    1.86384   1.87286   1.87762   1.88692   1.90135
 Alpha virt. eigenvalues --    1.90377   1.90878   1.92149   1.92552   1.92921
 Alpha virt. eigenvalues --    1.93980   1.94378   1.94958   1.95309   1.95746
 Alpha virt. eigenvalues --    1.96561   1.97942   1.98517   1.98892   2.00113
 Alpha virt. eigenvalues --    2.00839   2.01487   2.02964   2.03147   2.03952
 Alpha virt. eigenvalues --    2.04470   2.04758   2.05264   2.06182   2.06607
 Alpha virt. eigenvalues --    2.07459   2.08733   2.09958   2.10175   2.10742
 Alpha virt. eigenvalues --    2.12063   2.12858   2.13648   2.14998   2.17792
 Alpha virt. eigenvalues --    2.19140   2.19880   2.20686   2.21745   2.22008
 Alpha virt. eigenvalues --    2.23554   2.25236   2.25743   2.27188   2.28009
 Alpha virt. eigenvalues --    2.28513   2.28551   2.29439   2.30798   2.30872
 Alpha virt. eigenvalues --    2.31828   2.32778   2.33487   2.33895   2.34475
 Alpha virt. eigenvalues --    2.34783   2.35670   2.36364   2.38429   2.39298
 Alpha virt. eigenvalues --    2.40295   2.41007   2.42188   2.43108   2.43465
 Alpha virt. eigenvalues --    2.43937   2.45188   2.46357   2.47373   2.48186
 Alpha virt. eigenvalues --    2.48408   2.50720   2.52086   2.53064   2.54047
 Alpha virt. eigenvalues --    2.54434   2.54824   2.56679   2.57199   2.57648
 Alpha virt. eigenvalues --    2.59326   2.61610   2.62061   2.63590   2.64144
 Alpha virt. eigenvalues --    2.65903   2.67144   2.68459   2.69301   2.69572
 Alpha virt. eigenvalues --    2.70472   2.70518   2.72292   2.74809   2.75407
 Alpha virt. eigenvalues --    2.76923   2.77002   2.78165   2.79347   2.81152
 Alpha virt. eigenvalues --    2.84463   2.85937   2.86680   2.90314   2.90855
 Alpha virt. eigenvalues --    2.91811   2.93572   2.94692   2.96474   2.97457
 Alpha virt. eigenvalues --    2.99350   3.00703   3.02651   3.06336   3.07334
 Alpha virt. eigenvalues --    3.07983   3.10098   3.12627   3.14571   3.16390
 Alpha virt. eigenvalues --    3.22688   3.23569   3.43940   3.50321   3.78383
 Alpha virt. eigenvalues --    3.89312   3.91579   3.95740   3.96471   3.99860
 Alpha virt. eigenvalues --    4.05771   4.06176   4.08341   4.14037   4.16999
 Alpha virt. eigenvalues --    4.18447   4.19084   4.21272   4.24614   4.25668
 Alpha virt. eigenvalues --    4.26219   4.31016   4.32113   4.33940   4.36124
 Alpha virt. eigenvalues --    4.39431   4.48022   4.50447   4.51772   4.52667
 Alpha virt. eigenvalues --    4.55450   4.55748   4.58699   4.65328   4.71574
 Alpha virt. eigenvalues --    4.75473   4.81113   4.88310
          Condensed to atoms (all electrons):
 Mulliken atomic charges:
              1
     1  C    0.109947
     2  C    0.300433
     3  C   -0.273684
     4  C    0.141871
     5  C   -0.062297
     6  C    0.239387
     7  C    0.053578
     8  C    0.277189
     9  O   -0.497473
    10  C    0.598579
    11  C   -0.370240
    12  C    0.245797
    13  C   -0.303021
    14  C   -0.360493
    15  C   -0.585834
    16  O   -0.659613
    17  O   -0.637860
    18  O   -0.536932
    19  O   -0.551892
    20  C    0.127176
    21  C    0.093637
    22  C    0.108720
    23  C   -0.159136
    24  C    0.057898
    25  C   -0.365031
    26  O   -0.653499
    27  O   -0.638454
    28  C    0.604565
    29  O   -0.465328
    30  O   -0.493107
    31  C   -0.216846
    32  C    0.587019
    33  O   -0.566440
    34  O   -0.466085
    35  H    0.143682
    36  H    0.167044
    37  H    0.191719
    38  H    0.167173
    39  H    0.168102
    40  H    0.187917
    41  H    0.175872
    42  H    0.209742
    43  H    0.161596
    44  H    0.161651
    45  H    0.449294
    46  H    0.422247
    47  H    0.137637
    48  H    0.141093
    49  H    0.141694
    50  H    0.178944
    51  H    0.179129
    52  H    0.181726
    53  H    0.414151
    54  H    0.408834
    55  H    0.166521
    56  H    0.171302
    57  H    0.171516
    58  H    0.418883
 Sum of Mulliken atomic charges =   0.00000
 Mulliken charges with hydrogens summed into heavy atoms:
              1
     1  C    0.109947
     2  C    0.300433
     3  C   -0.130002
     4  C    0.141871
     5  C   -0.062297
     6  C    0.239387
     7  C    0.053578
     8  C    0.277189
     9  O   -0.497473
    10  C    0.598579
    11  C   -0.011477
    12  C    0.245797
    13  C    0.032254
    14  C    0.003296
    15  C   -0.052846
    16  O   -0.210319
    17  O   -0.215613
    18  O   -0.536932
    19  O   -0.551892
    20  C    0.264813
    21  C    0.234730
    22  C    0.250414
    23  C    0.019808
    24  C    0.057898
    25  C   -0.004176
    26  O   -0.239348
    27  O   -0.229621
    28  C    0.604565
    29  O   -0.465328
    30  O   -0.493107
    31  C    0.292493
    32  C    0.587019
    33  O   -0.147556
    34  O   -0.466085
 Sum of Mulliken charges with hydrogens summed into heavy atoms =   0.00000
 Electronic spatial extent (au):  <R**2>=          20438.2398
 Charge=              0.0000 electrons
 Dipole moment (field-independent basis, Debye):
    X=             -0.5478    Y=             -2.9694    Z=             -1.2048  Tot=              3.2510
 Quadrupole moment (field-independent basis, Debye-Ang):
   XX=           -176.0730   YY=           -203.1467   ZZ=           -194.2699
   XY=            -17.7909   XZ=            -11.6709   YZ=              4.5978
 Traceless Quadrupole moment (field-independent basis, Debye-Ang):
   XX=             15.0902   YY=            -11.9835   ZZ=             -3.1067
   XY=            -17.7909   XZ=            -11.6709   YZ=              4.5978
 Octapole moment (field-independent basis, Debye-Ang**2):
  XXX=           -155.7122  YYY=            -45.3714  ZZZ=            -19.2555  XYY=            -11.4458
  XXY=           -102.0806  XXZ=           -112.5733  XZZ=             25.0631  YZZ=              1.1672
  YYZ=            -19.3076  XYZ=            -26.1455
 Hexadecapole moment (field-independent basis, Debye-Ang**3):
 XXXX=         -17656.7315 YYYY=          -3243.7470 ZZZZ=          -1919.7165 XXXY=           -570.9772
 XXXZ=           -368.9837 YYYX=             46.4400 YYYZ=            -29.1721 ZZZX=            -42.1392
 ZZZY=             83.0771 XXYY=          -4287.9822 XXZZ=          -3609.5944 YYZZ=           -958.6105
 XXYZ=            225.3038 YYXZ=            -97.6802 ZZXY=            -59.6680
 N-N= 3.679619663518D+03 E-N=-1.137267966061D+04  KE= 1.703116057174D+03
 1\1\GINC-B0603\FOpt\RB3LYP\6-31G(d)\C23H24O11\CAOFEI\02-Feb-2021\0\\# 
 opt b3lyp/6-31g(d) geom=connectivity\\Title Card Required\\0,1\C,4.526
 3192262,-0.6972685134,4.0245270748\C,3.475898715,0.2279418073,4.149794
 2715\C,2.6868801757,0.6318070412,3.0666308236\C,2.9353965835,0.1094208
 203,1.7990872535\C,3.9936721482,-0.8255973095,1.6317906459\C,4.7803306
 431,-1.2229711037,2.7498465104\C,2.1643656358,0.4777170701,0.620057783
 \C,2.4999915045,-0.0578315819,-0.574307969\O,3.520885353,-0.9625384088
 ,-0.7242985153\C,4.2892116865,-1.3817185033,0.3336731423\C,1.023040870
 7,1.466758823,0.7309624454\C,0.1005143371,1.4872130578,-0.5053512632\C
 ,0.9440054186,1.4836630942,-1.7895723108\C,1.8169575359,0.2271917917,-
 1.8774671548\C,5.3511877452,-1.1104724657,5.2187455692\O,5.7819609942,
 -2.1073080299,2.6154322878\O,3.1699225563,0.7848555201,5.3525784264\O,
 5.1748885663,-2.1985902991,0.0840121332\O,-0.7172185651,0.3151266189,-
 0.3588387138\C,-1.6487205172,-0.052940279,-1.3879399836\C,-1.844114961
 3,-1.5603791889,-1.2212177326\C,-2.7138678077,-2.1131297428,-2.3461735
 875\C,-3.9667861466,-1.2993163102,-2.5034784828\C,-4.090633497,-0.0461
 895236,-2.0382256861\C,-2.9970646307,0.6725179181,-1.2727370745\O,-0.6
 114321925,-2.2687215891,-1.2609881633\O,-3.0786888008,-3.4652535072,-2
 .103800341\C,-5.3454165667,0.7377574849,-2.2161406705\O,-6.298595995,0
 .0791642595,-2.9118934029\O,-5.5004813365,1.8614557922,-1.7746532306\C
 ,-7.5300706164,0.7945926784,-3.0926026375\C,-0.7696284012,2.7582070822
 ,-0.4519562002\O,-1.4984626495,2.8234476644,0.6838504771\O,-0.80551725
 38,3.614096789,-1.3080625377\H,1.8978013276,1.3503049467,3.2503511615\
 H,1.4226308184,2.4763762741,0.9030297363\H,0.3969139023,1.230435684,1.
 5964750891\H,1.5736000003,2.3796704114,-1.7707860555\H,0.3144460897,1.
 5841056246,-2.6774387587\H,1.2198734304,-0.6491623923,-2.1635979666\H,
 2.5785442317,0.3477462723,-2.6568298579\H,6.1091709186,-1.8360597961,4
 .9211318881\H,5.8756153697,-0.257016737,5.6727115328\H,4.7370061672,-1
 .581206585,6.0001087529\H,5.8134431992,-2.3678032001,1.6561056713\H,3.
 7729982831,0.4409425688,6.0300391412\H,-1.2080851506,0.1291948315,-2.3
 765526593\H,-2.360164168,-1.7458002704,-0.2662383554\H,-2.1273360442,-
 2.0487589431,-3.2816456283\H,-4.7865808961,-1.7767209609,-3.0308772914
 \H,-2.9251578093,1.7016392971,-1.6381400344\H,-3.2719176492,0.74737304
 85,-0.212920938\H,-0.0630000242,-1.8936771566,-0.5516883022\H,-2.24567
 95974,-3.9379365653,-1.9378739693\H,-8.1729884948,0.1269924118,-3.6669
 356368\H,-7.9843671634,1.0286873534,-2.1260571052\H,-7.3571721421,1.72
 63064255,-3.6379052982\H,-2.0283243568,3.6416585099,0.6242517077\\Vers
 ion=EM64L-G09RevB.01\State=1-A\HF=-1718.3737964\RMSD=6.286e-09\RMSF=6.
 856e-06\Dipole=-0.610702,0.7978992,0.7913999\Quadrupole=-2.7804255,-11
 .3704252,14.1508507,5.6370378,12.9075874,0.4581313\PG=C01 [X(C23H24O11
 )]\\@


 OLD HORSE! OLD HORSE! WHAT BROUGHT YOU HERE?
 FROM SACARAP' TO PORTLAND PIER
 I'VE CARTED STONE THIS MANY A YEAR;
 TILL, KILLED BY BLOWS AND SORE ABUSE,
 THEY SALTED ME DOWN FOR SAILORS' USE.
 THE SAILORS THEY DO ME DESPISE;
 THEY TURN ME OVER AND DAMN MY EYES;
 CUT OFF MY MEAT, AND SCRAPE MY BONES,
 AND PITCH ME OVER TO DAVY JONES.

    SAILORS' COMPLAINT ABOUT THE BEEF
    SERVED ON SHIPBOARD, CIRCA 1835.
 Job cpu time:  0 days  3 hours 58 minutes 30.7 seconds.
 File lengths (MBytes):  RWF=    201 Int=      0 D2E=      0 Chk=     21 Scr=      1
 Normal termination of Gaussian 09 at Tue Feb  2 11:33:28 2021.
