 Entering Gaussian System, Link 0=g09
 Initial command:
 /public/software/g09/g09/l1.exe /tmp/Gau-18195.inp -scrdir=/tmp/
 Entering Link 1 = /public/software/g09/g09/l1.exe PID=     18196.
  
 Copyright (c) 1988,1990,1992,1993,1995,1998,2003,2009,2010,
            Gaussian, Inc.  All Rights Reserved.
  
 This is part of the Gaussian(R) 09 program.  It is based on
 the Gaussian(R) 03 system (copyright 2003, Gaussian, Inc.),
 the Gaussian(R) 98 system (copyright 1998, Gaussian, Inc.),
 the Gaussian(R) 94 system (copyright 1995, Gaussian, Inc.),
 the Gaussian 92(TM) system (copyright 1992, Gaussian, Inc.),
 the Gaussian 90(TM) system (copyright 1990, Gaussian, Inc.),
 the Gaussian 88(TM) system (copyright 1988, Gaussian, Inc.),
 the Gaussian 86(TM) system (copyright 1986, Carnegie Mellon
 University), and the Gaussian 82(TM) system (copyright 1983,
 Carnegie Mellon University). Gaussian is a federally registered
 trademark of Gaussian, Inc.
  
 This software contains proprietary and confidential information,
 including trade secrets, belonging to Gaussian, Inc.
  
 This software is provided under written license and may be
 used, copied, transmitted, or stored only in accord with that
 written license.
  
 The following legend is applicable only to US Government
 contracts under FAR:
  
                    RESTRICTED RIGHTS LEGEND
  
 Use, reproduction and disclosure by the US Government is
 subject to restrictions as set forth in subparagraphs (a)
 and (c) of the Commercial Computer Software - Restricted
 Rights clause in FAR 52.227-19.
  
 Gaussian, Inc.
 340 Quinnipiac St., Bldg. 40, Wallingford CT 06492
  
  
 ---------------------------------------------------------------
 Warning -- This program may not be used in any manner that
 competes with the business of Gaussian, Inc. or will provide
 assistance to any competitor of Gaussian, Inc.  The licensee
 of this program is prohibited from giving any competitor of
 Gaussian, Inc. access to this program.  By using this program,
 the user acknowledges that Gaussian, Inc. is engaged in the
 business of creating and licensing software in the field of
 computational chemistry and represents and warrants to the
 licensee that it is not a competitor of Gaussian, Inc. and that
 it will not use this program in any manner prohibited above.
 ---------------------------------------------------------------
  

 Cite this work as:
 Gaussian 09, Revision B.01,
 M. J. Frisch, G. W. Trucks, H. B. Schlegel, G. E. Scuseria, 
 M. A. Robb, J. R. Cheeseman, G. Scalmani, V. Barone, B. Mennucci, 
 G. A. Petersson, H. Nakatsuji, M. Caricato, X. Li, H. P. Hratchian, 
 A. F. Izmaylov, J. Bloino, G. Zheng, J. L. Sonnenberg, M. Hada, 
 M. Ehara, K. Toyota, R. Fukuda, J. Hasegawa, M. Ishida, T. Nakajima, 
 Y. Honda, O. Kitao, H. Nakai, T. Vreven, J. A. Montgomery, Jr., 
 J. E. Peralta, F. Ogliaro, M. Bearpark, J. J. Heyd, E. Brothers, 
 K. N. Kudin, V. N. Staroverov, T. Keith, R. Kobayashi, J. Normand, 
 K. Raghavachari, A. Rendell, J. C. Burant, S. S. Iyengar, J. Tomasi, 
 M. Cossi, N. Rega, J. M. Millam, M. Klene, J. E. Knox, J. B. Cross, 
 V. Bakken, C. Adamo, J. Jaramillo, R. Gomperts, R. E. Stratmann, 
 O. Yazyev, A. J. Austin, R. Cammi, C. Pomelli, J. W. Ochterski, 
 R. L. Martin, K. Morokuma, V. G. Zakrzewski, G. A. Voth, 
 P. Salvador, J. J. Dannenberg, S. Dapprich, A. D. Daniels, 
 O. Farkas, J. B. Foresman, J. V. Ortiz, J. Cioslowski, 
 and D. J. Fox, Gaussian, Inc., Wallingford CT, 2010.
 
 ******************************************
 Gaussian 09:  EM64L-G09RevB.01 12-Aug-2010
                 2-Feb-2021 
 ******************************************
 %mem=600MW
 %nprocshared=10
 Will use up to   10 processors via shared memory.
 --------------------------------------
 # opt b3lyp/6-31g(d) geom=connectivity
 --------------------------------------
 1/14=-1,18=20,19=15,26=3,38=1,57=2/1,3;
 2/9=110,12=2,17=6,18=5,40=1/2;
 3/5=1,6=6,7=1,11=2,16=1,25=1,30=1,71=1,74=-5/1,2,3;
 4//1;
 5/5=2,38=5/2;
 6/7=2,8=2,9=2,10=2,28=1/1;
 7//1,2,3,16;
 1/14=-1,18=20,19=15/3(2);
 2/9=110/2;
 99//99;
 2/9=110/2;
 3/5=1,6=6,7=1,11=2,16=1,25=1,30=1,71=1,74=-5/1,2,3;
 4/5=5,16=3/1;
 5/5=2,38=5/2;
 7//1,2,3,16;
 1/14=-1,18=20,19=15/3(-5);
 2/9=110/2;
 6/7=2,8=2,9=2,10=2,19=2,28=1/1;
 99/9=1/99;
 -------------------
 Title Card Required
 -------------------
 Symbolic Z-matrix:
 Charge =  0 Multiplicity = 1
 C                     4.57743  -0.61806   4.09772 
 C                     3.49974   0.26286   4.209 
 C                     2.72505   0.61061   3.09864 
 C                     3.01381   0.08767   1.82763 
 C                     4.11178  -0.77579   1.69954 
 C                     4.88715  -1.12038   2.82621 
 C                     2.21277   0.42961   0.63747 
 C                     2.60009  -0.07553  -0.54492 
 O                     3.7075   -0.93149  -0.68927 
 C                     4.46777  -1.31925   0.36991 
 C                     0.98997   1.31884   0.75718 
 C                     0.06163   1.32474  -0.4934 
 C                     0.95213   1.40881  -1.74793 
 C                     1.91496   0.22832  -1.84635 
 C                     5.42458  -0.96776   5.29044 
 O                     5.97887  -1.95145   2.73899 
 O                     3.20724   0.79498   5.43409 
 O                     5.42107  -2.08283   0.24251 
 O                    -0.68285   0.09566  -0.42766 
 C                    -1.62528  -0.20911  -1.47234 
 C                    -1.89268  -1.72186  -1.37529 
 C                    -2.8673   -2.17689  -2.47257 
 C                    -4.06713  -1.2937   -2.58505 
 C                    -4.12082  -0.06108  -2.04633 
 C                    -2.95272   0.55224  -1.31479 
 O                    -0.66234  -2.45242  -1.51331 
 O                    -3.31888  -3.49605  -2.17539 
 C                    -5.33342   0.80358  -2.12798 
 O                    -6.2989    0.2422   -2.89494 
 O                    -5.40779   1.88755  -1.56657 
 C                    -7.48536   1.02839  -3.00693 
 C                    -0.79456   2.60201  -0.38059 
 O                    -1.58585   2.6209    0.71292 
 O                    -0.82755   3.52857  -1.17439 
 H                     1.89849   1.30041   3.23722 
 H                     1.33459   2.33882   0.97621 
 H                     0.38925   0.98119   1.61247 
 H                     1.53389   2.34142  -1.72417 
 H                     0.35322   1.46063  -2.66406 
 H                     1.38202  -0.66712  -2.18402 
 H                     2.66654   0.45497  -2.61225 
 H                     5.7482   -2.01323   5.25186 
 H                     6.30716  -0.32139   5.3227 
 H                     4.87322  -0.8534    6.22916 
 H                     6.09156  -2.24509   1.80757 
 H                     2.426     1.36718   5.36757 
 H                    -1.17437  -0.00498  -2.44892 
 H                    -2.28069  -1.98123  -0.38131 
 H                    -2.36085  -2.22687  -3.4436 
 H                    -4.9134   -1.71281  -3.12447 
 H                    -2.80664   1.57382  -1.68252 
 H                    -3.20596   0.63198  -0.24997 
 H                    -0.065    -2.07438  -0.83799 
 H                    -2.5068   -4.01474  -2.01562 
 H                    -8.1946    0.48377  -3.6363 
 H                    -7.94033   1.17902  -2.02289 
 H                    -7.26523   1.98857  -3.484 
 H                    -2.12036   3.43958   0.6211 
 

 GradGradGradGradGradGradGradGradGradGradGradGradGradGradGradGradGradGrad
 Berny optimization.
 Initialization pass.
                           ----------------------------
                           !    Initial Parameters    !
                           ! (Angstroms and Degrees)  !
 --------------------------                            --------------------------
 ! Name  Definition              Value          Derivative Info.                !
 --------------------------------------------------------------------------------
 ! R1    R(1,2)                  1.3964         estimate D2E/DX2                !
 ! R2    R(1,6)                  1.4018         estimate D2E/DX2                !
 ! R3    R(1,15)                 1.5042         estimate D2E/DX2                !
 ! R4    R(2,3)                  1.3978         estimate D2E/DX2                !
 ! R5    R(2,17)                 1.3673         estimate D2E/DX2                !
 ! R6    R(3,4)                  1.4044         estimate D2E/DX2                !
 ! R7    R(3,35)                 1.0855         estimate D2E/DX2                !
 ! R8    R(4,5)                  1.4027         estimate D2E/DX2                !
 ! R9    R(4,7)                  1.4748         estimate D2E/DX2                !
 ! R10   R(5,6)                  1.4104         estimate D2E/DX2                !
 ! R11   R(5,10)                 1.4799         estimate D2E/DX2                !
 ! R12   R(6,16)                 1.3748         estimate D2E/DX2                !
 ! R13   R(7,8)                  1.3428         estimate D2E/DX2                !
 ! R14   R(7,11)                 1.5167         estimate D2E/DX2                !
 ! R15   R(8,9)                  1.4071         estimate D2E/DX2                !
 ! R16   R(8,14)                 1.5018         estimate D2E/DX2                !
 ! R17   R(9,10)                 1.3602         estimate D2E/DX2                !
 ! R18   R(10,18)                1.228          estimate D2E/DX2                !
 ! R19   R(11,12)                1.5575         estimate D2E/DX2                !
 ! R20   R(11,36)                1.0987         estimate D2E/DX2                !
 ! R21   R(11,37)                1.0984         estimate D2E/DX2                !
 ! R22   R(12,13)                1.5408         estimate D2E/DX2                !
 ! R23   R(12,19)                1.4385         estimate D2E/DX2                !
 ! R24   R(12,32)                1.5418         estimate D2E/DX2                !
 ! R25   R(13,14)                1.5265         estimate D2E/DX2                !
 ! R26   R(13,38)                1.0994         estimate D2E/DX2                !
 ! R27   R(13,39)                1.0957         estimate D2E/DX2                !
 ! R28   R(14,40)                1.0954         estimate D2E/DX2                !
 ! R29   R(14,41)                1.0967         estimate D2E/DX2                !
 ! R30   R(15,42)                1.0951         estimate D2E/DX2                !
 ! R31   R(15,43)                1.0944         estimate D2E/DX2                !
 ! R32   R(15,44)                1.0947         estimate D2E/DX2                !
 ! R33   R(16,45)                0.9831         estimate D2E/DX2                !
 ! R34   R(17,46)                0.9707         estimate D2E/DX2                !
 ! R35   R(18,45)                1.7104         estimate D2E/DX2                !
 ! R36   R(19,20)                1.4396         estimate D2E/DX2                !
 ! R37   R(20,21)                1.5393         estimate D2E/DX2                !
 ! R38   R(20,25)                1.5384         estimate D2E/DX2                !
 ! R39   R(20,47)                1.0949         estimate D2E/DX2                !
 ! R40   R(21,22)                1.5365         estimate D2E/DX2                !
 ! R41   R(21,26)                1.4375         estimate D2E/DX2                !
 ! R42   R(21,48)                1.0981         estimate D2E/DX2                !
 ! R43   R(22,23)                1.4941         estimate D2E/DX2                !
 ! R44   R(22,27)                1.4256         estimate D2E/DX2                !
 ! R45   R(22,49)                1.0963         estimate D2E/DX2                !
 ! R46   R(23,24)                1.3463         estimate D2E/DX2                !
 ! R47   R(23,50)                1.0876         estimate D2E/DX2                !
 ! R48   R(24,25)                1.5086         estimate D2E/DX2                !
 ! R49   R(24,28)                1.4915         estimate D2E/DX2                !
 ! R50   R(25,51)                1.0955         estimate D2E/DX2                !
 ! R51   R(25,52)                1.0974         estimate D2E/DX2                !
 ! R52   R(26,53)                0.9776         estimate D2E/DX2                !
 ! R53   R(27,54)                0.9768         estimate D2E/DX2                !
 ! R54   R(28,29)                1.3548         estimate D2E/DX2                !
 ! R55   R(28,30)                1.223          estimate D2E/DX2                !
 ! R56   R(29,31)                1.4277         estimate D2E/DX2                !
 ! R57   R(31,55)                1.0935         estimate D2E/DX2                !
 ! R58   R(31,56)                1.0945         estimate D2E/DX2                !
 ! R59   R(31,57)                1.0945         estimate D2E/DX2                !
 ! R60   R(32,33)                1.3499         estimate D2E/DX2                !
 ! R61   R(32,34)                1.2205         estimate D2E/DX2                !
 ! R62   R(33,58)                0.982          estimate D2E/DX2                !
 ! A1    A(2,1,6)              117.9616         estimate D2E/DX2                !
 ! A2    A(2,1,15)             121.2077         estimate D2E/DX2                !
 ! A3    A(6,1,15)             120.7643         estimate D2E/DX2                !
 ! A4    A(1,2,3)              121.4238         estimate D2E/DX2                !
 ! A5    A(1,2,17)             118.8177         estimate D2E/DX2                !
 ! A6    A(3,2,17)             119.7581         estimate D2E/DX2                !
 ! A7    A(2,3,4)              120.8179         estimate D2E/DX2                !
 ! A8    A(2,3,35)             118.6002         estimate D2E/DX2                !
 ! A9    A(4,3,35)             120.5803         estimate D2E/DX2                !
 ! A10   A(3,4,5)              118.2166         estimate D2E/DX2                !
 ! A11   A(3,4,7)              122.1638         estimate D2E/DX2                !
 ! A12   A(5,4,7)              119.6162         estimate D2E/DX2                !
 ! A13   A(4,5,6)              120.5152         estimate D2E/DX2                !
 ! A14   A(4,5,10)             119.7627         estimate D2E/DX2                !
 ! A15   A(6,5,10)             119.7195         estimate D2E/DX2                !
 ! A16   A(1,6,5)              121.0354         estimate D2E/DX2                !
 ! A17   A(1,6,16)             116.7186         estimate D2E/DX2                !
 ! A18   A(5,6,16)             122.2453         estimate D2E/DX2                !
 ! A19   A(4,7,8)              117.8195         estimate D2E/DX2                !
 ! A20   A(4,7,11)             120.6732         estimate D2E/DX2                !
 ! A21   A(8,7,11)             121.5067         estimate D2E/DX2                !
 ! A22   A(7,8,9)              123.1046         estimate D2E/DX2                !
 ! A23   A(7,8,14)             123.7337         estimate D2E/DX2                !
 ! A24   A(9,8,14)             113.1553         estimate D2E/DX2                !
 ! A25   A(8,9,10)             122.2374         estimate D2E/DX2                !
 ! A26   A(5,10,9)             117.4183         estimate D2E/DX2                !
 ! A27   A(5,10,18)            120.5506         estimate D2E/DX2                !
 ! A28   A(9,10,18)            122.0294         estimate D2E/DX2                !
 ! A29   A(7,11,12)            114.7962         estimate D2E/DX2                !
 ! A30   A(7,11,36)            107.8874         estimate D2E/DX2                !
 ! A31   A(7,11,37)            108.7942         estimate D2E/DX2                !
 ! A32   A(12,11,36)           110.0916         estimate D2E/DX2                !
 ! A33   A(12,11,37)           107.4832         estimate D2E/DX2                !
 ! A34   A(36,11,37)           107.5605         estimate D2E/DX2                !
 ! A35   A(11,12,13)           108.0289         estimate D2E/DX2                !
 ! A36   A(11,12,19)           105.5779         estimate D2E/DX2                !
 ! A37   A(11,12,32)           105.9843         estimate D2E/DX2                !
 ! A38   A(13,12,19)           112.5177         estimate D2E/DX2                !
 ! A39   A(13,12,32)           109.592          estimate D2E/DX2                !
 ! A40   A(19,12,32)           114.6505         estimate D2E/DX2                !
 ! A41   A(12,13,14)           112.0143         estimate D2E/DX2                !
 ! A42   A(12,13,38)           109.5429         estimate D2E/DX2                !
 ! A43   A(12,13,39)           111.5575         estimate D2E/DX2                !
 ! A44   A(14,13,38)           108.8822         estimate D2E/DX2                !
 ! A45   A(14,13,39)           109.1117         estimate D2E/DX2                !
 ! A46   A(38,13,39)           105.4961         estimate D2E/DX2                !
 ! A47   A(8,14,13)            112.8507         estimate D2E/DX2                !
 ! A48   A(8,14,40)            108.8868         estimate D2E/DX2                !
 ! A49   A(8,14,41)            109.5328         estimate D2E/DX2                !
 ! A50   A(13,14,40)           110.1917         estimate D2E/DX2                !
 ! A51   A(13,14,41)           108.5083         estimate D2E/DX2                !
 ! A52   A(40,14,41)           106.683          estimate D2E/DX2                !
 ! A53   A(1,15,42)            111.1281         estimate D2E/DX2                !
 ! A54   A(1,15,43)            109.8918         estimate D2E/DX2                !
 ! A55   A(1,15,44)            111.8409         estimate D2E/DX2                !
 ! A56   A(42,15,43)           109.0602         estimate D2E/DX2                !
 ! A57   A(42,15,44)           106.1878         estimate D2E/DX2                !
 ! A58   A(43,15,44)           108.6149         estimate D2E/DX2                !
 ! A59   A(6,16,45)            109.3711         estimate D2E/DX2                !
 ! A60   A(2,17,46)            109.8883         estimate D2E/DX2                !
 ! A61   A(12,19,20)           119.1129         estimate D2E/DX2                !
 ! A62   A(19,20,21)           106.0232         estimate D2E/DX2                !
 ! A63   A(19,20,25)           112.6933         estimate D2E/DX2                !
 ! A64   A(19,20,47)           109.7674         estimate D2E/DX2                !
 ! A65   A(21,20,25)           109.2705         estimate D2E/DX2                !
 ! A66   A(21,20,47)           108.1206         estimate D2E/DX2                !
 ! A67   A(25,20,47)           110.7601         estimate D2E/DX2                !
 ! A68   A(20,21,22)           110.8671         estimate D2E/DX2                !
 ! A69   A(20,21,26)           110.1646         estimate D2E/DX2                !
 ! A70   A(20,21,48)           110.5236         estimate D2E/DX2                !
 ! A71   A(22,21,26)           108.8932         estimate D2E/DX2                !
 ! A72   A(22,21,48)           110.6298         estimate D2E/DX2                !
 ! A73   A(26,21,48)           105.6223         estimate D2E/DX2                !
 ! A74   A(21,22,23)           112.835          estimate D2E/DX2                !
 ! A75   A(21,22,27)           109.0311         estimate D2E/DX2                !
 ! A76   A(21,22,49)           110.6706         estimate D2E/DX2                !
 ! A77   A(23,22,27)           107.957          estimate D2E/DX2                !
 ! A78   A(23,22,49)           109.3443         estimate D2E/DX2                !
 ! A79   A(27,22,49)           106.7852         estimate D2E/DX2                !
 ! A80   A(22,23,24)           122.8969         estimate D2E/DX2                !
 ! A81   A(22,23,50)           115.7486         estimate D2E/DX2                !
 ! A82   A(24,23,50)           121.3503         estimate D2E/DX2                !
 ! A83   A(23,24,25)           122.371          estimate D2E/DX2                !
 ! A84   A(23,24,28)           122.7716         estimate D2E/DX2                !
 ! A85   A(25,24,28)           114.8573         estimate D2E/DX2                !
 ! A86   A(20,25,24)           114.6626         estimate D2E/DX2                !
 ! A87   A(20,25,51)           108.1838         estimate D2E/DX2                !
 ! A88   A(20,25,52)           109.5396         estimate D2E/DX2                !
 ! A89   A(24,25,51)           108.6381         estimate D2E/DX2                !
 ! A90   A(24,25,52)           108.7462         estimate D2E/DX2                !
 ! A91   A(51,25,52)           106.7803         estimate D2E/DX2                !
 ! A92   A(21,26,53)           105.0761         estimate D2E/DX2                !
 ! A93   A(22,27,54)           105.1955         estimate D2E/DX2                !
 ! A94   A(24,28,29)           111.7237         estimate D2E/DX2                !
 ! A95   A(24,28,30)           122.5559         estimate D2E/DX2                !
 ! A96   A(29,28,30)           125.7177         estimate D2E/DX2                !
 ! A97   A(28,29,31)           114.107          estimate D2E/DX2                !
 ! A98   A(29,31,55)           108.0524         estimate D2E/DX2                !
 ! A99   A(29,31,56)           110.5297         estimate D2E/DX2                !
 ! A100  A(29,31,57)           110.4953         estimate D2E/DX2                !
 ! A101  A(55,31,56)           108.4443         estimate D2E/DX2                !
 ! A102  A(55,31,57)           108.4516         estimate D2E/DX2                !
 ! A103  A(56,31,57)           110.7775         estimate D2E/DX2                !
 ! A104  A(12,32,33)           113.3518         estimate D2E/DX2                !
 ! A105  A(12,32,34)           126.6062         estimate D2E/DX2                !
 ! A106  A(33,32,34)           120.0241         estimate D2E/DX2                !
 ! A107  A(32,33,58)           104.7728         estimate D2E/DX2                !
 ! D1    D(6,1,2,3)              1.7156         estimate D2E/DX2                !
 ! D2    D(6,1,2,17)          -178.0473         estimate D2E/DX2                !
 ! D3    D(15,1,2,3)           178.7745         estimate D2E/DX2                !
 ! D4    D(15,1,2,17)           -0.9884         estimate D2E/DX2                !
 ! D5    D(2,1,6,5)             -1.7088         estimate D2E/DX2                !
 ! D6    D(2,1,6,16)           177.974          estimate D2E/DX2                !
 ! D7    D(15,1,6,5)          -178.7813         estimate D2E/DX2                !
 ! D8    D(15,1,6,16)            0.9015         estimate D2E/DX2                !
 ! D9    D(2,1,15,42)          144.1183         estimate D2E/DX2                !
 ! D10   D(2,1,15,43)          -95.0757         estimate D2E/DX2                !
 ! D11   D(2,1,15,44)           25.637          estimate D2E/DX2                !
 ! D12   D(6,1,15,42)          -38.905          estimate D2E/DX2                !
 ! D13   D(6,1,15,43)           81.901          estimate D2E/DX2                !
 ! D14   D(6,1,15,44)         -157.3864         estimate D2E/DX2                !
 ! D15   D(1,2,3,4)             -0.3946         estimate D2E/DX2                !
 ! D16   D(1,2,3,35)          -179.9355         estimate D2E/DX2                !
 ! D17   D(17,2,3,4)           179.3661         estimate D2E/DX2                !
 ! D18   D(17,2,3,35)           -0.1747         estimate D2E/DX2                !
 ! D19   D(1,2,17,46)         -178.536          estimate D2E/DX2                !
 ! D20   D(3,2,17,46)            1.697          estimate D2E/DX2                !
 ! D21   D(2,3,4,5)             -0.9571         estimate D2E/DX2                !
 ! D22   D(2,3,4,7)            179.7219         estimate D2E/DX2                !
 ! D23   D(35,3,4,5)           178.5747         estimate D2E/DX2                !
 ! D24   D(35,3,4,7)            -0.7464         estimate D2E/DX2                !
 ! D25   D(3,4,5,6)              0.9539         estimate D2E/DX2                !
 ! D26   D(3,4,5,10)          -178.4468         estimate D2E/DX2                !
 ! D27   D(7,4,5,6)           -179.7072         estimate D2E/DX2                !
 ! D28   D(7,4,5,10)             0.8921         estimate D2E/DX2                !
 ! D29   D(3,4,7,8)            177.2461         estimate D2E/DX2                !
 ! D30   D(3,4,7,11)            -3.0034         estimate D2E/DX2                !
 ! D31   D(5,4,7,8)             -2.0657         estimate D2E/DX2                !
 ! D32   D(5,4,7,11)           177.6847         estimate D2E/DX2                !
 ! D33   D(4,5,6,1)              0.3888         estimate D2E/DX2                !
 ! D34   D(4,5,6,16)          -179.2762         estimate D2E/DX2                !
 ! D35   D(10,5,6,1)           179.7897         estimate D2E/DX2                !
 ! D36   D(10,5,6,16)            0.1248         estimate D2E/DX2                !
 ! D37   D(4,5,10,9)             0.9195         estimate D2E/DX2                !
 ! D38   D(4,5,10,18)         -179.5505         estimate D2E/DX2                !
 ! D39   D(6,5,10,9)          -178.486          estimate D2E/DX2                !
 ! D40   D(6,5,10,18)            1.044          estimate D2E/DX2                !
 ! D41   D(1,6,16,45)          179.4794         estimate D2E/DX2                !
 ! D42   D(5,6,16,45)           -0.842          estimate D2E/DX2                !
 ! D43   D(4,7,8,9)              1.4574         estimate D2E/DX2                !
 ! D44   D(4,7,8,14)          -177.5579         estimate D2E/DX2                !
 ! D45   D(11,7,8,9)          -178.2909         estimate D2E/DX2                !
 ! D46   D(11,7,8,14)            2.6938         estimate D2E/DX2                !
 ! D47   D(4,7,11,12)         -166.3174         estimate D2E/DX2                !
 ! D48   D(4,7,11,36)           70.5392         estimate D2E/DX2                !
 ! D49   D(4,7,11,37)          -45.8668         estimate D2E/DX2                !
 ! D50   D(8,7,11,12)           13.4237         estimate D2E/DX2                !
 ! D51   D(8,7,11,36)         -109.7196         estimate D2E/DX2                !
 ! D52   D(8,7,11,37)          133.8744         estimate D2E/DX2                !
 ! D53   D(7,8,9,10)             0.4209         estimate D2E/DX2                !
 ! D54   D(14,8,9,10)          179.5303         estimate D2E/DX2                !
 ! D55   D(7,8,14,13)           13.481          estimate D2E/DX2                !
 ! D56   D(7,8,14,40)         -109.2056         estimate D2E/DX2                !
 ! D57   D(7,8,14,41)          134.4791         estimate D2E/DX2                !
 ! D58   D(9,8,14,13)         -165.6219         estimate D2E/DX2                !
 ! D59   D(9,8,14,40)           71.6915         estimate D2E/DX2                !
 ! D60   D(9,8,14,41)          -44.6238         estimate D2E/DX2                !
 ! D61   D(8,9,10,5)            -1.6195         estimate D2E/DX2                !
 ! D62   D(8,9,10,18)          178.8579         estimate D2E/DX2                !
 ! D63   D(7,11,12,13)         -43.3179         estimate D2E/DX2                !
 ! D64   D(7,11,12,19)          77.2689         estimate D2E/DX2                !
 ! D65   D(7,11,12,32)        -160.7081         estimate D2E/DX2                !
 ! D66   D(36,11,12,13)         78.637          estimate D2E/DX2                !
 ! D67   D(36,11,12,19)       -160.7763         estimate D2E/DX2                !
 ! D68   D(36,11,12,32)        -38.7533         estimate D2E/DX2                !
 ! D69   D(37,11,12,13)       -164.4887         estimate D2E/DX2                !
 ! D70   D(37,11,12,19)        -43.902          estimate D2E/DX2                !
 ! D71   D(37,11,12,32)         78.121          estimate D2E/DX2                !
 ! D72   D(11,12,13,14)         59.8252         estimate D2E/DX2                !
 ! D73   D(11,12,13,38)        -61.1008         estimate D2E/DX2                !
 ! D74   D(11,12,13,39)       -177.5283         estimate D2E/DX2                !
 ! D75   D(19,12,13,14)        -56.3207         estimate D2E/DX2                !
 ! D76   D(19,12,13,38)       -177.2467         estimate D2E/DX2                !
 ! D77   D(19,12,13,39)         66.3258         estimate D2E/DX2                !
 ! D78   D(32,12,13,14)        174.8642         estimate D2E/DX2                !
 ! D79   D(32,12,13,38)         53.9381         estimate D2E/DX2                !
 ! D80   D(32,12,13,39)        -62.4893         estimate D2E/DX2                !
 ! D81   D(11,12,19,20)       -178.9295         estimate D2E/DX2                !
 ! D82   D(13,12,19,20)        -61.3231         estimate D2E/DX2                !
 ! D83   D(32,12,19,20)         64.8085         estimate D2E/DX2                !
 ! D84   D(11,12,32,33)        -62.3091         estimate D2E/DX2                !
 ! D85   D(11,12,32,34)        119.2419         estimate D2E/DX2                !
 ! D86   D(13,12,32,33)       -178.6482         estimate D2E/DX2                !
 ! D87   D(13,12,32,34)          2.9028         estimate D2E/DX2                !
 ! D88   D(19,12,32,33)         53.7189         estimate D2E/DX2                !
 ! D89   D(19,12,32,34)       -124.7301         estimate D2E/DX2                !
 ! D90   D(12,13,14,8)         -45.5268         estimate D2E/DX2                !
 ! D91   D(12,13,14,40)         76.4277         estimate D2E/DX2                !
 ! D92   D(12,13,14,41)       -167.1061         estimate D2E/DX2                !
 ! D93   D(38,13,14,8)          75.7806         estimate D2E/DX2                !
 ! D94   D(38,13,14,40)       -162.2648         estimate D2E/DX2                !
 ! D95   D(38,13,14,41)        -45.7986         estimate D2E/DX2                !
 ! D96   D(39,13,14,8)        -169.5515         estimate D2E/DX2                !
 ! D97   D(39,13,14,40)        -47.597          estimate D2E/DX2                !
 ! D98   D(39,13,14,41)         68.8693         estimate D2E/DX2                !
 ! D99   D(12,19,20,21)        161.9086         estimate D2E/DX2                !
 ! D100  D(12,19,20,25)        -78.6013         estimate D2E/DX2                !
 ! D101  D(12,19,20,47)         45.3534         estimate D2E/DX2                !
 ! D102  D(19,20,21,22)       -178.6023         estimate D2E/DX2                !
 ! D103  D(19,20,21,26)        -57.9951         estimate D2E/DX2                !
 ! D104  D(19,20,21,48)         58.3511         estimate D2E/DX2                !
 ! D105  D(25,20,21,22)         59.6876         estimate D2E/DX2                !
 ! D106  D(25,20,21,26)       -179.7051         estimate D2E/DX2                !
 ! D107  D(25,20,21,48)        -63.359          estimate D2E/DX2                !
 ! D108  D(47,20,21,22)        -60.9429         estimate D2E/DX2                !
 ! D109  D(47,20,21,26)         59.6643         estimate D2E/DX2                !
 ! D110  D(47,20,21,48)        176.0105         estimate D2E/DX2                !
 ! D111  D(19,20,25,24)       -159.221          estimate D2E/DX2                !
 ! D112  D(19,20,25,51)         79.3814         estimate D2E/DX2                !
 ! D113  D(19,20,25,52)        -36.6599         estimate D2E/DX2                !
 ! D114  D(21,20,25,24)        -41.6306         estimate D2E/DX2                !
 ! D115  D(21,20,25,51)       -163.0282         estimate D2E/DX2                !
 ! D116  D(21,20,25,52)         80.9304         estimate D2E/DX2                !
 ! D117  D(47,20,25,24)         77.3742         estimate D2E/DX2                !
 ! D118  D(47,20,25,51)        -44.0234         estimate D2E/DX2                !
 ! D119  D(47,20,25,52)       -160.0647         estimate D2E/DX2                !
 ! D120  D(20,21,22,23)        -47.2627         estimate D2E/DX2                !
 ! D121  D(20,21,22,27)       -167.2037         estimate D2E/DX2                !
 ! D122  D(20,21,22,49)         75.626          estimate D2E/DX2                !
 ! D123  D(26,21,22,23)       -168.621          estimate D2E/DX2                !
 ! D124  D(26,21,22,27)         71.4381         estimate D2E/DX2                !
 ! D125  D(26,21,22,49)        -45.7323         estimate D2E/DX2                !
 ! D126  D(48,21,22,23)         75.7225         estimate D2E/DX2                !
 ! D127  D(48,21,22,27)        -44.2185         estimate D2E/DX2                !
 ! D128  D(48,21,22,49)       -161.3888         estimate D2E/DX2                !
 ! D129  D(20,21,26,53)         54.0391         estimate D2E/DX2                !
 ! D130  D(22,21,26,53)        175.8252         estimate D2E/DX2                !
 ! D131  D(48,21,26,53)        -65.3341         estimate D2E/DX2                !
 ! D132  D(21,22,23,24)         16.3941         estimate D2E/DX2                !
 ! D133  D(21,22,23,50)       -162.8699         estimate D2E/DX2                !
 ! D134  D(27,22,23,24)        136.9512         estimate D2E/DX2                !
 ! D135  D(27,22,23,50)        -42.3128         estimate D2E/DX2                !
 ! D136  D(49,22,23,24)       -107.231          estimate D2E/DX2                !
 ! D137  D(49,22,23,50)         73.505          estimate D2E/DX2                !
 ! D138  D(21,22,27,54)        -51.1406         estimate D2E/DX2                !
 ! D139  D(23,22,27,54)       -174.0511         estimate D2E/DX2                !
 ! D140  D(49,22,27,54)         68.4677         estimate D2E/DX2                !
 ! D141  D(22,23,24,25)          1.882          estimate D2E/DX2                !
 ! D142  D(22,23,24,28)       -178.2664         estimate D2E/DX2                !
 ! D143  D(50,23,24,25)       -178.8943         estimate D2E/DX2                !
 ! D144  D(50,23,24,28)          0.9574         estimate D2E/DX2                !
 ! D145  D(23,24,25,20)         11.5801         estimate D2E/DX2                !
 ! D146  D(23,24,25,51)        132.7286         estimate D2E/DX2                !
 ! D147  D(23,24,25,52)       -111.4087         estimate D2E/DX2                !
 ! D148  D(28,24,25,20)       -168.2824         estimate D2E/DX2                !
 ! D149  D(28,24,25,51)        -47.1339         estimate D2E/DX2                !
 ! D150  D(28,24,25,52)         68.7287         estimate D2E/DX2                !
 ! D151  D(23,24,28,29)         -5.2557         estimate D2E/DX2                !
 ! D152  D(23,24,28,30)        175.3094         estimate D2E/DX2                !
 ! D153  D(25,24,28,29)        174.6062         estimate D2E/DX2                !
 ! D154  D(25,24,28,30)         -4.8287         estimate D2E/DX2                !
 ! D155  D(24,28,29,31)        179.9467         estimate D2E/DX2                !
 ! D156  D(30,28,29,31)         -0.6399         estimate D2E/DX2                !
 ! D157  D(28,29,31,55)       -179.6244         estimate D2E/DX2                !
 ! D158  D(28,29,31,56)        -61.1097         estimate D2E/DX2                !
 ! D159  D(28,29,31,57)         61.8719         estimate D2E/DX2                !
 ! D160  D(12,32,33,58)       -175.4692         estimate D2E/DX2                !
 ! D161  D(34,32,33,58)          3.0928         estimate D2E/DX2                !
 --------------------------------------------------------------------------------
 Trust Radius=3.00D-01 FncErr=1.00D-07 GrdErr=1.00D-06
 Number of steps in this run=    340 maximum allowed number of steps=    348.
 GradGradGradGradGradGradGradGradGradGradGradGradGradGradGradGradGradGrad

 Stoichiometry    C23H24O11
 Framework group  C1[X(C23H24O11)]
 Deg. of freedom   168
 Full point group                 C1      NOp   1
 Largest Abelian subgroup         C1      NOp   1
 Largest concise Abelian subgroup C1      NOp   1
                         Standard orientation:                         
 ---------------------------------------------------------------------
 Center     Atomic      Atomic             Coordinates (Angstroms)
 Number     Number       Type             X           Y           Z
 ---------------------------------------------------------------------
      1          6           0        5.839595   -0.693732   -1.228879
      2          6           0        4.884940   -1.710151   -1.302064
      3          6           0        3.642471   -1.589691   -0.672985
      4          6           0        3.317412   -0.438851    0.063372
      5          6           0        4.280113    0.576029    0.167072
      6          6           0        5.530847    0.444675   -0.471458
      7          6           0        2.013657   -0.277962    0.733751
      8          6           0        1.816020    0.833203    1.461404
      9          8           0        2.778408    1.852232    1.584911
     10          6           0        3.986664    1.788350    0.963416
     11          6           0        0.936222   -1.336287    0.594504
     12          6           0       -0.480400   -0.892138    1.065375
     13          6           0       -0.323300   -0.126625    2.393239
     14          6           0        0.562015    1.107594    2.240907
     15          6           0        7.185329   -0.839753   -1.884785
     16          8           0        6.505375    1.410257   -0.381488
     17          8           0        5.183649   -2.845710   -2.002659
     18          8           0        4.815759    2.689385    1.057211
     19          8           0       -0.996219   -0.062947    0.009161
     20          6           0       -2.299674    0.529914    0.157261
     21          6           0       -2.362284    1.679245   -0.864718
     22          6           0       -3.707156    2.417194   -0.776773
     23          6           0       -4.877138    1.488524   -0.745418
     24          6           0       -4.761630    0.175946   -0.469314
     25          6           0       -3.439331   -0.463861   -0.125852
     26          8           0       -1.300080    2.616875   -0.621685
     27          8           0       -3.848263    3.263653   -1.915196
     28          6           0       -5.926205   -0.755944   -0.475613
     29          8           0       -7.093713   -0.098182   -0.675105
     30          8           0       -5.805573   -1.961196   -0.306705
     31          6           0       -8.243965   -0.943754   -0.691637
     32          6           0       -1.273805   -2.191601    1.308492
     33          8           0       -1.431340   -2.938572    0.195174
     34          8           0       -1.764037   -2.558298    2.364390
     35          1           0        2.935038   -2.408471   -0.758830
     36          1           0        1.259828   -2.223265    1.156328
     37          1           0        0.857424   -1.624101   -0.462546
     38          1           0        0.118604   -0.790242    3.150271
     39          1           0       -1.294329    0.176447    2.800566
     40          1           0        0.006762    1.912605    1.747426
     41          1           0        0.824548    1.473320    3.240991
     42          1           0        7.532850    0.116470   -2.289881
     43          1           0        7.916236   -1.206566   -1.157463
     44          1           0        7.153401   -1.535437   -2.729343
     45          1           0        6.173861    2.158348    0.163411
     46          1           0        4.425343   -3.451478   -1.988562
     47          1           0       -2.399373    0.959505    1.159366
     48          1           0       -2.194929    1.299835   -1.881507
     49          1           0       -3.735230    3.066609    0.106038
     50          1           0       -5.841757    1.935970   -0.973695
     51          1           0       -3.574140   -1.091413    0.761952
     52          1           0       -3.147789   -1.132888   -0.945449
     53          1           0       -0.482492    2.080835   -0.622882
     54          1           0       -3.022086    3.783402   -1.951756
     55          1           0       -9.122994   -0.316759   -0.864618
     56          1           0       -8.172943   -1.672574   -1.505156
     57          1           0       -8.362599   -1.448278    0.272400
     58          1           0       -2.007359   -3.683791    0.473062
 ---------------------------------------------------------------------
 Rotational constants (GHZ):      0.2410979      0.0543466      0.0504555
 Standard basis: 6-31G(d) (6D, 7F)
 There are   558 symmetry adapted basis functions of A   symmetry.
 Integral buffers will be    131072 words long.
 Raffenetti 2 integral format.
 Two-electron integral symmetry is turned on.
   558 basis functions,  1048 primitive gaussians,   558 cartesian basis functions
   125 alpha electrons      125 beta electrons
       nuclear repulsion energy      3657.6569396658 Hartrees.
 NAtoms=   58 NActive=   58 NUniq=   58 SFac= 1.00D+00 NAtFMM=   50 NAOKFM=T Big=T
 One-electron integrals computed using PRISM.
 NBasis=   558 RedAO= T  NBF=   558
 NBsUse=   558 1.00D-06 NBFU=   558
 Harris functional with IExCor=  402 diagonalized for initial guess.
 ExpMin= 1.61D-01 ExpMax= 5.48D+03 ExpMxC= 8.25D+02 IAcc=1 IRadAn=         1 AccDes= 0.00D+00
 HarFok:  IExCor=  402 AccDes= 0.00D+00 IRadAn=         1 IDoV= 1
 ScaDFX=  1.000000  1.000000  1.000000  1.000000
 FoFCou: FMM=F IPFlag=           0 FMFlag=      100000 FMFlg1=        2001
         NFxFlg=           0 DoJE=T BraDBF=F KetDBF=T FulRan=T
         Omega=  0.000000  0.000000  1.000000  0.000000  0.000000 ICntrl=     500 IOpCl=  0
         NMat0=    1 NMatS0=    1 NMatT0=    0 NMatD0=    1 NMtDS0=    0 NMtDT0=    0
         I1Cent=           4 NGrid=           0.
 Petite list used in FoFCou.
 Initial guess orbital symmetries:
       Occupied  (A) (A) (A) (A) (A) (A) (A) (A) (A) (A) (A) (A)
                 (A) (A) (A) (A) (A) (A) (A) (A) (A) (A) (A) (A)
                 (A) (A) (A) (A) (A) (A) (A) (A) (A) (A) (A) (A)
                 (A) (A) (A) (A) (A) (A) (A) (A) (A) (A) (A) (A)
                 (A) (A) (A) (A) (A) (A) (A) (A) (A) (A) (A) (A)
                 (A) (A) (A) (A) (A) (A) (A) (A) (A) (A) (A) (A)
                 (A) (A) (A) (A) (A) (A) (A) (A) (A) (A) (A) (A)
                 (A) (A) (A) (A) (A) (A) (A) (A) (A) (A) (A) (A)
                 (A) (A) (A) (A) (A) (A) (A) (A) (A) (A) (A) (A)
                 (A) (A) (A) (A) (A) (A) (A) (A) (A) (A) (A) (A)
                 (A) (A) (A) (A) (A)
       Virtual   (A) (A) (A) (A) (A) (A) (A) (A) (A) (A) (A) (A)
                 (A) (A) (A) (A) (A) (A) (A) (A) (A) (A) (A) (A)
                 (A) (A) (A) (A) (A) (A) (A) (A) (A) (A) (A) (A)
                 (A) (A) (A) (A) (A) (A) (A) (A) (A) (A) (A) (A)
                 (A) (A) (A) (A) (A) (A) (A) (A) (A) (A) (A) (A)
                 (A) (A) (A) (A) (A) (A) (A) (A) (A) (A) (A) (A)
                 (A) (A) (A) (A) (A) (A) (A) (A) (A) (A) (A) (A)
                 (A) (A) (A) (A) (A) (A) (A) (A) (A) (A) (A) (A)
                 (A) (A) (A) (A) (A) (A) (A) (A) (A) (A) (A) (A)
                 (A) (A) (A) (A) (A) (A) (A) (A) (A) (A) (A) (A)
                 (A) (A) (A) (A) (A) (A) (A) (A) (A) (A) (A) (A)
                 (A) (A) (A) (A) (A) (A) (A) (A) (A) (A) (A) (A)
                 (A) (A) (A) (A) (A) (A) (A) (A) (A) (A) (A) (A)
                 (A) (A) (A) (A) (A) (A) (A) (A) (A) (A) (A) (A)
                 (A) (A) (A) (A) (A) (A) (A) (A) (A) (A) (A) (A)
                 (A) (A) (A) (A) (A) (A) (A) (A) (A) (A) (A) (A)
                 (A) (A) (A) (A) (A) (A) (A) (A) (A) (A) (A) (A)
                 (A) (A) (A) (A) (A) (A) (A) (A) (A) (A) (A) (A)
                 (A) (A) (A) (A) (A) (A) (A) (A) (A) (A) (A) (A)
                 (A) (A) (A) (A) (A) (A) (A) (A) (A) (A) (A) (A)
                 (A) (A) (A) (A) (A) (A) (A) (A) (A) (A) (A) (A)
                 (A) (A) (A) (A) (A) (A) (A) (A) (A) (A) (A) (A)
                 (A) (A) (A) (A) (A) (A) (A) (A) (A) (A) (A) (A)
                 (A) (A) (A) (A) (A) (A) (A) (A) (A) (A) (A) (A)
                 (A) (A) (A) (A) (A) (A) (A) (A) (A) (A) (A) (A)
                 (A) (A) (A) (A) (A) (A) (A) (A) (A) (A) (A) (A)
                 (A) (A) (A) (A) (A) (A) (A) (A) (A) (A) (A) (A)
                 (A) (A) (A) (A) (A) (A) (A) (A) (A) (A) (A) (A)
                 (A) (A) (A) (A) (A) (A) (A) (A) (A) (A) (A) (A)
                 (A) (A) (A) (A) (A) (A) (A) (A) (A) (A) (A) (A)
                 (A) (A) (A) (A) (A) (A) (A) (A) (A) (A) (A) (A)
                 (A) (A) (A) (A) (A) (A) (A) (A) (A) (A) (A) (A)
                 (A) (A) (A) (A) (A) (A) (A) (A) (A) (A) (A) (A)
                 (A) (A) (A) (A) (A) (A) (A) (A) (A) (A) (A) (A)
                 (A) (A) (A) (A) (A) (A) (A) (A) (A) (A) (A) (A)
                 (A) (A) (A) (A) (A) (A) (A) (A) (A) (A) (A) (A)
                 (A)
 The electronic state of the initial guess is 1-A.
 Requested convergence on RMS density matrix=1.00D-08 within 128 cycles.
 Requested convergence on MAX density matrix=1.00D-06.
 Requested convergence on             energy=1.00D-06.
 No special actions if energy rises.
 Integral accuracy reduced to 1.0D-05 until final iterations.
 Initial convergence to 1.0D-05 achieved.  Increase integral accuracy.
 SCF Done:  E(RB3LYP) =  -1718.35801764     A.U. after   15 cycles
             Convg  =    0.4173D-08             -V/T =  2.0091

 **********************************************************************

            Population analysis using the SCF density.

 **********************************************************************

 Orbital symmetries:
       Occupied  (A) (A) (A) (A) (A) (A) (A) (A) (A) (A) (A) (A)
                 (A) (A) (A) (A) (A) (A) (A) (A) (A) (A) (A) (A)
                 (A) (A) (A) (A) (A) (A) (A) (A) (A) (A) (A) (A)
                 (A) (A) (A) (A) (A) (A) (A) (A) (A) (A) (A) (A)
                 (A) (A) (A) (A) (A) (A) (A) (A) (A) (A) (A) (A)
                 (A) (A) (A) (A) (A) (A) (A) (A) (A) (A) (A) (A)
                 (A) (A) (A) (A) (A) (A) (A) (A) (A) (A) (A) (A)
                 (A) (A) (A) (A) (A) (A) (A) (A) (A) (A) (A) (A)
                 (A) (A) (A) (A) (A) (A) (A) (A) (A) (A) (A) (A)
                 (A) (A) (A) (A) (A) (A) (A) (A) (A) (A) (A) (A)
                 (A) (A) (A) (A) (A)
       Virtual   (A) (A) (A) (A) (A) (A) (A) (A) (A) (A) (A) (A)
                 (A) (A) (A) (A) (A) (A) (A) (A) (A) (A) (A) (A)
                 (A) (A) (A) (A) (A) (A) (A) (A) (A) (A) (A) (A)
                 (A) (A) (A) (A) (A) (A) (A) (A) (A) (A) (A) (A)
                 (A) (A) (A) (A) (A) (A) (A) (A) (A) (A) (A) (A)
                 (A) (A) (A) (A) (A) (A) (A) (A) (A) (A) (A) (A)
                 (A) (A) (A) (A) (A) (A) (A) (A) (A) (A) (A) (A)
                 (A) (A) (A) (A) (A) (A) (A) (A) (A) (A) (A) (A)
                 (A) (A) (A) (A) (A) (A) (A) (A) (A) (A) (A) (A)
                 (A) (A) (A) (A) (A) (A) (A) (A) (A) (A) (A) (A)
                 (A) (A) (A) (A) (A) (A) (A) (A) (A) (A) (A) (A)
                 (A) (A) (A) (A) (A) (A) (A) (A) (A) (A) (A) (A)
                 (A) (A) (A) (A) (A) (A) (A) (A) (A) (A) (A) (A)
                 (A) (A) (A) (A) (A) (A) (A) (A) (A) (A) (A) (A)
                 (A) (A) (A) (A) (A) (A) (A) (A) (A) (A) (A) (A)
                 (A) (A) (A) (A) (A) (A) (A) (A) (A) (A) (A) (A)
                 (A) (A) (A) (A) (A) (A) (A) (A) (A) (A) (A) (A)
                 (A) (A) (A) (A) (A) (A) (A) (A) (A) (A) (A) (A)
                 (A) (A) (A) (A) (A) (A) (A) (A) (A) (A) (A) (A)
                 (A) (A) (A) (A) (A) (A) (A) (A) (A) (A) (A) (A)
                 (A) (A) (A) (A) (A) (A) (A) (A) (A) (A) (A) (A)
                 (A) (A) (A) (A) (A) (A) (A) (A) (A) (A) (A) (A)
                 (A) (A) (A) (A) (A) (A) (A) (A) (A) (A) (A) (A)
                 (A) (A) (A) (A) (A) (A) (A) (A) (A) (A) (A) (A)
                 (A) (A) (A) (A) (A) (A) (A) (A) (A) (A) (A) (A)
                 (A) (A) (A) (A) (A) (A) (A) (A) (A) (A) (A) (A)
                 (A) (A) (A) (A) (A) (A) (A) (A) (A) (A) (A) (A)
                 (A) (A) (A) (A) (A) (A) (A) (A) (A) (A) (A) (A)
                 (A) (A) (A) (A) (A) (A) (A) (A) (A) (A) (A) (A)
                 (A) (A) (A) (A) (A) (A) (A) (A) (A) (A) (A) (A)
                 (A) (A) (A) (A) (A) (A) (A) (A) (A) (A) (A) (A)
                 (A) (A) (A) (A) (A) (A) (A) (A) (A) (A) (A) (A)
                 (A) (A) (A) (A) (A) (A) (A) (A) (A) (A) (A) (A)
                 (A) (A) (A) (A) (A) (A) (A) (A) (A) (A) (A) (A)
                 (A) (A) (A) (A) (A) (A) (A) (A) (A) (A) (A) (A)
                 (A) (A) (A) (A) (A) (A) (A) (A) (A) (A) (A) (A)
                 (A)
 The electronic state is 1-A.
 Alpha  occ. eigenvalues --  -19.22564 -19.21642 -19.20334 -19.19439 -19.18706
 Alpha  occ. eigenvalues --  -19.16381 -19.16214 -19.16028 -19.14934 -19.14603
 Alpha  occ. eigenvalues --  -19.14402 -10.34158 -10.33217 -10.32515 -10.28968
 Alpha  occ. eigenvalues --  -10.27460 -10.26656 -10.26432 -10.26032 -10.25375
 Alpha  occ. eigenvalues --  -10.25027 -10.24713 -10.22517 -10.22396 -10.22014
 Alpha  occ. eigenvalues --  -10.21941 -10.21363 -10.21315 -10.21187 -10.20638
 Alpha  occ. eigenvalues --  -10.20239 -10.19823 -10.19747 -10.17586  -1.12819
 Alpha  occ. eigenvalues --   -1.12125  -1.10919  -1.07436  -1.06516  -1.05179
 Alpha  occ. eigenvalues --   -1.03640  -1.03030  -1.02578  -1.02215  -1.01606
 Alpha  occ. eigenvalues --   -0.88089  -0.86238  -0.84835  -0.80710  -0.79554
 Alpha  occ. eigenvalues --   -0.76954  -0.76551  -0.75442  -0.74992  -0.72492
 Alpha  occ. eigenvalues --   -0.70171  -0.68894  -0.66570  -0.65381  -0.64439
 Alpha  occ. eigenvalues --   -0.64422  -0.63176  -0.61353  -0.59235  -0.58013
 Alpha  occ. eigenvalues --   -0.56952  -0.55796  -0.54828  -0.54681  -0.53458
 Alpha  occ. eigenvalues --   -0.52611  -0.52064  -0.50989  -0.50286  -0.49237
 Alpha  occ. eigenvalues --   -0.49134  -0.48969  -0.48507  -0.48006  -0.47586
 Alpha  occ. eigenvalues --   -0.47261  -0.46534  -0.46238  -0.45593  -0.45113
 Alpha  occ. eigenvalues --   -0.44307  -0.44271  -0.43878  -0.43482  -0.42965
 Alpha  occ. eigenvalues --   -0.42871  -0.42160  -0.41683  -0.41327  -0.40977
 Alpha  occ. eigenvalues --   -0.40697  -0.39938  -0.39592  -0.39090  -0.38730
 Alpha  occ. eigenvalues --   -0.38528  -0.38132  -0.37629  -0.37236  -0.37022
 Alpha  occ. eigenvalues --   -0.36480  -0.35533  -0.35384  -0.34962  -0.34620
 Alpha  occ. eigenvalues --   -0.33883  -0.33702  -0.33489  -0.33273  -0.31109
 Alpha  occ. eigenvalues --   -0.30799  -0.28749  -0.28528  -0.28199  -0.28048
 Alpha  occ. eigenvalues --   -0.27934  -0.26603  -0.26346  -0.23533  -0.21879
 Alpha virt. eigenvalues --   -0.05165  -0.04256  -0.03011  -0.02508   0.03427
 Alpha virt. eigenvalues --    0.05081   0.05362   0.05813   0.06414   0.06936
 Alpha virt. eigenvalues --    0.07360   0.08872   0.09902   0.10059   0.10396
 Alpha virt. eigenvalues --    0.10572   0.11391   0.11885   0.12502   0.13040
 Alpha virt. eigenvalues --    0.13567   0.14235   0.14569   0.15155   0.15301
 Alpha virt. eigenvalues --    0.15562   0.15931   0.16513   0.16595   0.17146
 Alpha virt. eigenvalues --    0.17477   0.17758   0.18061   0.18335   0.18668
 Alpha virt. eigenvalues --    0.18837   0.19761   0.19827   0.20860   0.21638
 Alpha virt. eigenvalues --    0.21871   0.22668   0.22906   0.23841   0.24710
 Alpha virt. eigenvalues --    0.25059   0.25588   0.25821   0.26385   0.26949
 Alpha virt. eigenvalues --    0.27582   0.28352   0.29593   0.31211   0.32171
 Alpha virt. eigenvalues --    0.32743   0.33625   0.34695   0.35607   0.37001
 Alpha virt. eigenvalues --    0.38929   0.39927   0.40282   0.41031   0.42566
 Alpha virt. eigenvalues --    0.42849   0.45668   0.47202   0.48433   0.48899
 Alpha virt. eigenvalues --    0.50158   0.50374   0.50855   0.51476   0.51921
 Alpha virt. eigenvalues --    0.52354   0.52722   0.52906   0.53616   0.54171
 Alpha virt. eigenvalues --    0.54565   0.55237   0.55703   0.55847   0.56323
 Alpha virt. eigenvalues --    0.56650   0.57371   0.57502   0.57974   0.58657
 Alpha virt. eigenvalues --    0.59030   0.59146   0.60527   0.61134   0.61544
 Alpha virt. eigenvalues --    0.61833   0.62713   0.63049   0.63191   0.63755
 Alpha virt. eigenvalues --    0.64557   0.65069   0.65345   0.66296   0.66955
 Alpha virt. eigenvalues --    0.67727   0.68392   0.68498   0.70246   0.70369
 Alpha virt. eigenvalues --    0.70961   0.71356   0.71677   0.72133   0.73123
 Alpha virt. eigenvalues --    0.73523   0.73636   0.73825   0.75134   0.75296
 Alpha virt. eigenvalues --    0.76114   0.76763   0.77014   0.78079   0.78182
 Alpha virt. eigenvalues --    0.78512   0.78786   0.80656   0.81365   0.82242
 Alpha virt. eigenvalues --    0.82683   0.83190   0.83579   0.83632   0.84342
 Alpha virt. eigenvalues --    0.84570   0.85539   0.85690   0.87010   0.87320
 Alpha virt. eigenvalues --    0.87670   0.87789   0.88624   0.89295   0.89991
 Alpha virt. eigenvalues --    0.90577   0.90780   0.91396   0.91862   0.92134
 Alpha virt. eigenvalues --    0.93218   0.93712   0.93900   0.94269   0.94885
 Alpha virt. eigenvalues --    0.95437   0.96066   0.96287   0.96545   0.97199
 Alpha virt. eigenvalues --    0.97863   0.98467   0.99109   0.99307   0.99742
 Alpha virt. eigenvalues --    1.00754   1.01453   1.01730   1.02331   1.03124
 Alpha virt. eigenvalues --    1.03538   1.04494   1.05340   1.05968   1.07078
 Alpha virt. eigenvalues --    1.08130   1.09041   1.09293   1.10285   1.11202
 Alpha virt. eigenvalues --    1.11832   1.12597   1.13028   1.14281   1.15283
 Alpha virt. eigenvalues --    1.15641   1.16927   1.17347   1.18601   1.19299
 Alpha virt. eigenvalues --    1.21325   1.21707   1.21997   1.22135   1.22959
 Alpha virt. eigenvalues --    1.24226   1.25209   1.26699   1.26989   1.30086
 Alpha virt. eigenvalues --    1.30262   1.31184   1.31701   1.32775   1.33569
 Alpha virt. eigenvalues --    1.34302   1.34880   1.35964   1.36272   1.37268
 Alpha virt. eigenvalues --    1.37464   1.38446   1.39140   1.39490   1.40456
 Alpha virt. eigenvalues --    1.41465   1.41751   1.42093   1.43154   1.43742
 Alpha virt. eigenvalues --    1.44952   1.45290   1.46987   1.48862   1.49852
 Alpha virt. eigenvalues --    1.50895   1.51741   1.54614   1.55985   1.56731
 Alpha virt. eigenvalues --    1.59043   1.61803   1.62347   1.63354   1.63772
 Alpha virt. eigenvalues --    1.64820   1.65577   1.65871   1.67203   1.68099
 Alpha virt. eigenvalues --    1.69023   1.70102   1.70442   1.70800   1.71077
 Alpha virt. eigenvalues --    1.71977   1.72250   1.72589   1.72991   1.73830
 Alpha virt. eigenvalues --    1.74650   1.75288   1.76009   1.76824   1.77644
 Alpha virt. eigenvalues --    1.77886   1.78028   1.79498   1.80444   1.81252
 Alpha virt. eigenvalues --    1.81607   1.81678   1.81841   1.82414   1.83233
 Alpha virt. eigenvalues --    1.83470   1.84322   1.84957   1.85464   1.85807
 Alpha virt. eigenvalues --    1.86454   1.87294   1.87533   1.87908   1.89714
 Alpha virt. eigenvalues --    1.89887   1.90398   1.90856   1.91750   1.92756
 Alpha virt. eigenvalues --    1.93265   1.93596   1.94023   1.94962   1.95842
 Alpha virt. eigenvalues --    1.96474   1.97197   1.98464   1.98561   1.99929
 Alpha virt. eigenvalues --    2.01149   2.01529   2.01865   2.02627   2.03393
 Alpha virt. eigenvalues --    2.03511   2.04108   2.04739   2.05895   2.06465
 Alpha virt. eigenvalues --    2.07602   2.08729   2.09188   2.09766   2.10184
 Alpha virt. eigenvalues --    2.11798   2.12397   2.14057   2.14610   2.16314
 Alpha virt. eigenvalues --    2.18900   2.19665   2.20102   2.21753   2.22985
 Alpha virt. eigenvalues --    2.23504   2.24341   2.26019   2.27116   2.27221
 Alpha virt. eigenvalues --    2.27936   2.28645   2.29428   2.30268   2.30823
 Alpha virt. eigenvalues --    2.31624   2.32247   2.33058   2.33493   2.33768
 Alpha virt. eigenvalues --    2.34912   2.35722   2.36303   2.37427   2.38569
 Alpha virt. eigenvalues --    2.39183   2.39930   2.41887   2.42543   2.43155
 Alpha virt. eigenvalues --    2.43771   2.43891   2.45376   2.47081   2.47865
 Alpha virt. eigenvalues --    2.48845   2.50529   2.51480   2.51970   2.53097
 Alpha virt. eigenvalues --    2.54081   2.54226   2.55824   2.56880   2.57913
 Alpha virt. eigenvalues --    2.58631   2.60647   2.61441   2.62345   2.63179
 Alpha virt. eigenvalues --    2.65257   2.66152   2.67297   2.68326   2.69089
 Alpha virt. eigenvalues --    2.69632   2.70669   2.70931   2.73327   2.74240
 Alpha virt. eigenvalues --    2.76117   2.76385   2.77845   2.78377   2.80783
 Alpha virt. eigenvalues --    2.83620   2.84977   2.85823   2.89051   2.90894
 Alpha virt. eigenvalues --    2.91415   2.93265   2.94305   2.96414   2.96884
 Alpha virt. eigenvalues --    2.98392   3.00461   3.01266   3.04454   3.06160
 Alpha virt. eigenvalues --    3.07781   3.09884   3.11271   3.12299   3.15966
 Alpha virt. eigenvalues --    3.21588   3.22526   3.41082   3.49538   3.75659
 Alpha virt. eigenvalues --    3.89162   3.91810   3.95478   3.96147   3.99069
 Alpha virt. eigenvalues --    4.05528   4.05933   4.07633   4.13514   4.17554
 Alpha virt. eigenvalues --    4.17702   4.18274   4.21681   4.23466   4.24201
 Alpha virt. eigenvalues --    4.25104   4.31350   4.31941   4.33805   4.35617
 Alpha virt. eigenvalues --    4.39844   4.47480   4.48363   4.50532   4.51433
 Alpha virt. eigenvalues --    4.53826   4.54750   4.57134   4.63434   4.71351
 Alpha virt. eigenvalues --    4.73977   4.80230   4.88044
          Condensed to atoms (all electrons):
 Mulliken atomic charges:
              1
     1  C    0.092182
     2  C    0.333911
     3  C   -0.310207
     4  C    0.122268
     5  C   -0.065258
     6  C    0.234000
     7  C    0.073452
     8  C    0.270965
     9  O   -0.512117
    10  C    0.634316
    11  C   -0.375290
    12  C    0.258771
    13  C   -0.301640
    14  C   -0.358166
    15  C   -0.510370
    16  O   -0.664328
    17  O   -0.644255
    18  O   -0.532774
    19  O   -0.550060
    20  C    0.119305
    21  C    0.086727
    22  C    0.105711
    23  C   -0.146737
    24  C    0.050834
    25  C   -0.370056
    26  O   -0.661631
    27  O   -0.639863
    28  C    0.613423
    29  O   -0.458680
    30  O   -0.493038
    31  C   -0.221410
    32  C    0.584946
    33  O   -0.566118
    34  O   -0.473129
    35  H    0.116152
    36  H    0.170424
    37  H    0.189403
    38  H    0.169950
    39  H    0.167100
    40  H    0.180365
    41  H    0.177225
    42  H    0.175440
    43  H    0.169557
    44  H    0.167917
    45  H    0.449483
    46  H    0.414579
    47  H    0.141538
    48  H    0.147080
    49  H    0.148181
    50  H    0.178567
    51  H    0.175527
    52  H    0.185563
    53  H    0.412958
    54  H    0.407103
    55  H    0.167143
    56  H    0.171398
    57  H    0.171035
    58  H    0.420632
 Sum of Mulliken atomic charges =   0.00000
 Mulliken charges with hydrogens summed into heavy atoms:
              1
     1  C    0.092182
     2  C    0.333911
     3  C   -0.194056
     4  C    0.122268
     5  C   -0.065258
     6  C    0.234000
     7  C    0.073452
     8  C    0.270965
     9  O   -0.512117
    10  C    0.634316
    11  C   -0.015464
    12  C    0.258771
    13  C    0.035410
    14  C   -0.000576
    15  C    0.002544
    16  O   -0.214845
    17  O   -0.229676
    18  O   -0.532774
    19  O   -0.550060
    20  C    0.260842
    21  C    0.233806
    22  C    0.253892
    23  C    0.031829
    24  C    0.050834
    25  C   -0.008966
    26  O   -0.248673
    27  O   -0.232760
    28  C    0.613423
    29  O   -0.458680
    30  O   -0.493038
    31  C    0.288166
    32  C    0.584946
    33  O   -0.145487
    34  O   -0.473129
 Sum of Mulliken charges with hydrogens summed into heavy atoms =   0.00000
 Electronic spatial extent (au):  <R**2>=          20834.9219
 Charge=              0.0000 electrons
 Dipole moment (field-independent basis, Debye):
    X=             -3.8505    Y=             -3.6823    Z=             -0.1187  Tot=              5.3291
 Quadrupole moment (field-independent basis, Debye-Ang):
   XX=           -202.7218   YY=           -196.3229   ZZ=           -197.4052
   XY=            -14.1508   XZ=             -2.7430   YZ=              5.9842
 Traceless Quadrupole moment (field-independent basis, Debye-Ang):
   XX=             -3.9051   YY=              2.4937   ZZ=              1.4114
   XY=            -14.1508   XZ=             -2.7430   YZ=              5.9842
 Octapole moment (field-independent basis, Debye-Ang**2):
  XXX=           -423.9320  YYY=            -71.9755  ZZZ=             -7.3452  XYY=             -2.0920
  XXY=            -68.5269  XXZ=            -11.5694  XZZ=              1.2327  YZZ=              6.3383
  YYZ=            -29.2744  XYZ=            -39.4214
 Hexadecapole moment (field-independent basis, Debye-Ang**3):
 XXXX=         -19726.0963 YYYY=          -3185.2617 ZZZZ=          -1912.4590 XXXY=            103.5041
 XXXZ=            182.1768 YYYX=            -74.4775 YYYZ=             11.8935 ZZZX=             43.2187
 ZZZY=             66.9744 XXYY=          -4409.7585 XXZZ=          -3947.3848 YYZZ=           -930.0149
 XXYZ=             68.2494 YYXZ=            -91.4046 ZZXY=             16.3804
 N-N= 3.657656939666D+03 E-N=-1.132827652924D+04  KE= 1.702819002337D+03
 Calling FoFJK, ICntrl=      2127 FMM=T ISym2X=0 I1Cent= 0 IOpClX= 0 NMat=1 NMatS=1 NMatT=0.
 ***** Axes restored to original set *****
 -------------------------------------------------------------------
 Center     Atomic                   Forces (Hartrees/Bohr)
 Number     Number              X              Y              Z
 -------------------------------------------------------------------
      1        6           0.004930798   -0.002038309    0.006152828
      2        6          -0.008580165    0.005659084   -0.003989634
      3        6          -0.002892520   -0.000456687   -0.007908602
      4        6          -0.015271112    0.013836471    0.008998728
      5        6           0.001816607   -0.007129010   -0.026390003
      6        6           0.020355751   -0.014921880    0.001373359
      7        6           0.008839860   -0.008476189    0.009343982
      8        6           0.008436857   -0.002810326   -0.005660634
      9        8          -0.009311161    0.005475756   -0.006280396
     10        6           0.002118314    0.005834998    0.038619394
     11        6           0.000517709   -0.006701099    0.001965990
     12        6           0.017376119    0.003306761    0.002816910
     13        6          -0.000266938    0.003435767   -0.002870728
     14        6           0.004658585   -0.007876853   -0.001388693
     15        6          -0.002990713   -0.005762349    0.003922942
     16        8          -0.014847684    0.013632582    0.012934673
     17        8           0.005416316   -0.004246302    0.001230921
     18        8          -0.006356049    0.000172463   -0.024312793
     19        8          -0.001118156    0.007730351    0.000422562
     20        6          -0.011999769   -0.008212486    0.004340278
     21        6           0.018169093    0.006461787   -0.001707147
     22        6           0.004025716   -0.010866717    0.008986809
     23        6          -0.004131959    0.006324543    0.003565099
     24        6           0.004599306   -0.006432185   -0.005922854
     25        6           0.003450524    0.007204350    0.002127594
     26        8          -0.000841512    0.002087494   -0.003299151
     27        8           0.000857876   -0.006315216    0.002147962
     28        6           0.009614290   -0.000296297    0.001842151
     29        8          -0.000774257    0.006808000    0.004117675
     30        8          -0.006305765   -0.010583382   -0.008224895
     31        6          -0.010179461    0.002514840   -0.002894652
     32        6          -0.017353921    0.010042679   -0.010211330
     33        8           0.000254191   -0.001682951    0.003137637
     34        8           0.009065287   -0.012685515    0.003414871
     35        1          -0.000912884    0.000285204   -0.000490461
     36        1          -0.003590593    0.001069264   -0.000069141
     37        1          -0.000032987    0.002952231   -0.001854835
     38        1          -0.004360835   -0.001034473    0.002819415
     39        1          -0.000274371    0.001302414    0.001681488
     40        1          -0.000014825   -0.002493198   -0.001753806
     41        1           0.000934231   -0.002426129    0.000296777
     42        1           0.003192309    0.002274329   -0.003505192
     43        1           0.002918728   -0.001469942    0.002201519
     44        1          -0.000345768    0.004388427   -0.002058110
     45        1          -0.006466344    0.003677262   -0.004075480
     46        1           0.001005187   -0.001403263   -0.002098874
     47        1          -0.000507374   -0.000080323   -0.001461793
     48        1          -0.010142670    0.005415152   -0.002078595
     49        1           0.006890291    0.006429141   -0.002345831
     50        1           0.000563566    0.000758229    0.001739196
     51        1          -0.003883779    0.001327958    0.002243501
     52        1           0.002585406    0.001134690   -0.000149569
     53        1          -0.003652452   -0.003081125   -0.003258607
     54        1          -0.004089649    0.001102466   -0.001478751
     55        1           0.004488250   -0.003646662    0.000049773
     56        1           0.001852605    0.003219415   -0.000522507
     57        1           0.000079227    0.000963426    0.003655604
     58        1           0.002482673   -0.003698664    0.002113424
 -------------------------------------------------------------------
 Cartesian Forces:  Max     0.038619394 RMS     0.007213642

 GradGradGradGradGradGradGradGradGradGradGradGradGradGradGradGradGradGrad
 Berny optimization.
 Internal  Forces:  Max     0.029025858 RMS     0.004421245
 Search for a local minimum.
 Step number   1 out of a maximum of  340
 All quantities printed in internal units (Hartrees-Bohrs-Radians)
 Mixed Optimization -- RFO/linear search
 Second derivative matrix not updated -- first step.
 ITU=  0
     Eigenvalues ---    0.00230   0.00468   0.00496   0.00577   0.00597
     Eigenvalues ---    0.00705   0.00711   0.00878   0.01159   0.01168
     Eigenvalues ---    0.01183   0.01195   0.01206   0.01278   0.01301
     Eigenvalues ---    0.01325   0.01353   0.01366   0.01373   0.01414
     Eigenvalues ---    0.01528   0.01637   0.01716   0.01754   0.01792
     Eigenvalues ---    0.01901   0.02007   0.02025   0.02040   0.02071
     Eigenvalues ---    0.02110   0.02124   0.02127   0.02290   0.02354
     Eigenvalues ---    0.02785   0.03054   0.03414   0.03579   0.04053
     Eigenvalues ---    0.04347   0.04760   0.04800   0.04944   0.05040
     Eigenvalues ---    0.05146   0.05440   0.05734   0.05782   0.05881
     Eigenvalues ---    0.06067   0.06667   0.07138   0.07176   0.07250
     Eigenvalues ---    0.07851   0.08106   0.08141   0.08197   0.08292
     Eigenvalues ---    0.09459   0.09645   0.09679   0.09917   0.10008
     Eigenvalues ---    0.10113   0.10498   0.11867   0.12016   0.14321
     Eigenvalues ---    0.14614   0.15999   0.15999   0.16000   0.16000
     Eigenvalues ---    0.16000   0.16000   0.16000   0.16000   0.16000
     Eigenvalues ---    0.16000   0.16000   0.16000   0.16575   0.16724
     Eigenvalues ---    0.17035   0.18912   0.19301   0.19870   0.23030
     Eigenvalues ---    0.23528   0.24359   0.24963   0.24986   0.24991
     Eigenvalues ---    0.24994   0.24995   0.24998   0.24999   0.24999
     Eigenvalues ---    0.25000   0.25000   0.25000   0.25000   0.25000
     Eigenvalues ---    0.25000   0.25000   0.26532   0.27306   0.27559
     Eigenvalues ---    0.27795   0.28106   0.28358   0.28826   0.30345
     Eigenvalues ---    0.30902   0.31549   0.31944   0.32353   0.32692
     Eigenvalues ---    0.33281   0.33744   0.33829   0.33864   0.33893
     Eigenvalues ---    0.33969   0.34045   0.34094   0.34157   0.34181
     Eigenvalues ---    0.34198   0.34230   0.34258   0.34280   0.34292
     Eigenvalues ---    0.34295   0.34306   0.34411   0.34483   0.35095
     Eigenvalues ---    0.35342   0.38446   0.39642   0.39795   0.39926
     Eigenvalues ---    0.40805   0.41321   0.41624   0.43305   0.44416
     Eigenvalues ---    0.45122   0.45396   0.45984   0.49797   0.50311
     Eigenvalues ---    0.50709   0.50994   0.51496   0.51845   0.52021
     Eigenvalues ---    0.52657   0.53242   0.53594   0.54010   0.55040
     Eigenvalues ---    0.91696   0.94069   0.95145
 RFO step:  Lambda=-2.52244548D-02 EMin= 2.30000000D-03
 Linear search not attempted -- first point.
 Iteration  1 RMS(Cart)=  0.10993118 RMS(Int)=  0.00203999
 Iteration  2 RMS(Cart)=  0.00448521 RMS(Int)=  0.00037193
 Iteration  3 RMS(Cart)=  0.00001093 RMS(Int)=  0.00037189
 Iteration  4 RMS(Cart)=  0.00000002 RMS(Int)=  0.00037189
 Variable       Old X    -DE/DX   Delta X   Delta X   Delta X     New X
                                 (Linear)    (Quad)   (Total)
    R1        2.63874   0.00518   0.00000   0.00986   0.01016   2.64890
    R2        2.64898  -0.00113   0.00000  -0.00232  -0.00240   2.64658
    R3        2.84247   0.00214   0.00000   0.00621   0.00621   2.84868
    R4        2.64155   0.00446   0.00000   0.00838   0.00876   2.65031
    R5        2.58385  -0.00435   0.00000  -0.00805  -0.00805   2.57580
    R6        2.65392  -0.00618   0.00000  -0.01308  -0.01299   2.64092
    R7        2.05123   0.00082   0.00000   0.00215   0.00215   2.05338
    R8        2.65069   0.00843   0.00000   0.01999   0.01936   2.67005
    R9        2.78699  -0.01037   0.00000  -0.02652  -0.02645   2.76054
   R10        2.66533   0.00444   0.00000   0.01177   0.01036   2.67569
   R11        2.79654  -0.00993   0.00000  -0.02461  -0.02582   2.77072
   R12        2.59805  -0.02903   0.00000  -0.05481  -0.05505   2.54299
   R13        2.53760   0.00356   0.00000   0.00768   0.00803   2.54563
   R14        2.86610  -0.00221   0.00000  -0.00619  -0.00617   2.85994
   R15        2.65899  -0.01988   0.00000  -0.04383  -0.04350   2.61549
   R16        2.83802  -0.00520   0.00000  -0.01133  -0.01142   2.82660
   R17        2.57046  -0.00177   0.00000  -0.00393  -0.00397   2.56649
   R18        2.32064  -0.00159   0.00000  -0.00187  -0.00176   2.31889
   R19        2.94325  -0.00408   0.00000  -0.01851  -0.01844   2.92481
   R20        2.07620  -0.00015   0.00000  -0.00040  -0.00040   2.07580
   R21        2.07561  -0.00234   0.00000  -0.00642  -0.00642   2.06919
   R22        2.91160  -0.00128   0.00000  -0.00674  -0.00668   2.90492
   R23        2.71833  -0.00821   0.00000  -0.01939  -0.01939   2.69894
   R24        2.91361  -0.00368   0.00000  -0.01192  -0.01192   2.90169
   R25        2.88472   0.00475   0.00000   0.01362   0.01359   2.89831
   R26        2.07764  -0.00313   0.00000  -0.00862  -0.00862   2.06901
   R27        2.07067  -0.00119   0.00000  -0.00325  -0.00325   2.06741
   R28        2.06998   0.00259   0.00000   0.00705   0.00705   2.07703
   R29        2.07255  -0.00007   0.00000  -0.00019  -0.00019   2.07236
   R30        2.06943  -0.00111   0.00000  -0.00302  -0.00302   2.06642
   R31        2.06817   0.00155   0.00000   0.00421   0.00421   2.07238
   R32        2.06860  -0.00113   0.00000  -0.00307  -0.00307   2.06553
   R33        1.85776   0.00476   0.00000   0.00794   0.00893   1.86669
   R34        1.83428  -0.00149   0.00000  -0.00267  -0.00267   1.83161
   R35        3.23210   0.00346   0.00000   0.02857   0.02967   3.26177
   R36        2.72043  -0.00198   0.00000  -0.00470  -0.00470   2.71572
   R37        2.90878  -0.00762   0.00000  -0.02247  -0.02248   2.88630
   R38        2.90709  -0.00012   0.00000  -0.00316  -0.00312   2.90397
   R39        2.06897   0.00108   0.00000   0.00294   0.00294   2.07191
   R40        2.90366  -0.00820   0.00000  -0.02717  -0.02715   2.87651
   R41        2.71654  -0.00271   0.00000  -0.00640  -0.00640   2.71014
   R42        2.07510   0.00043   0.00000   0.00117   0.00117   2.07628
   R43        2.82340   0.00351   0.00000   0.01128   0.01125   2.83465
   R44        2.69404   0.00599   0.00000   0.01357   0.01357   2.70762
   R45        2.07172   0.00496   0.00000   0.01356   0.01356   2.08527
   R46        2.54408  -0.00438   0.00000  -0.00697  -0.00699   2.53708
   R47        2.05521  -0.00159   0.00000  -0.00424  -0.00424   2.05097
   R48        2.85079   0.00278   0.00000   0.00755   0.00755   2.85834
   R49        2.81860   0.00052   0.00000   0.00144   0.00144   2.82005
   R50        2.07026  -0.00003   0.00000  -0.00008  -0.00008   2.07017
   R51        2.07383  -0.00066   0.00000  -0.00181  -0.00181   2.07201
   R52        1.84748  -0.00567   0.00000  -0.01044  -0.01044   1.83705
   R53        1.84579  -0.00423   0.00000  -0.00775  -0.00775   1.83804
   R54        2.56023  -0.00335   0.00000  -0.00593  -0.00593   2.55430
   R55        2.31112  -0.01277   0.00000  -0.01322  -0.01322   2.29790
   R56        2.69797   0.00478   0.00000   0.01091   0.01091   2.70889
   R57        2.06641  -0.00112   0.00000  -0.00304  -0.00304   2.06337
   R58        2.06840  -0.00080   0.00000  -0.00217  -0.00217   2.06623
   R59        2.06835  -0.00073   0.00000  -0.00198  -0.00198   2.06637
   R60        2.55096   0.00256   0.00000   0.00445   0.00445   2.55541
   R61        2.30648  -0.01209   0.00000  -0.01238  -0.01238   2.29410
   R62        1.85576  -0.00463   0.00000  -0.00865  -0.00865   1.84710
    A1        2.05882  -0.00381   0.00000  -0.01268  -0.01312   2.04570
    A2        2.11547   0.00322   0.00000   0.01139   0.01157   2.12704
    A3        2.10773   0.00062   0.00000   0.00191   0.00209   2.10982
    A4        2.11924   0.00437   0.00000   0.01542   0.01545   2.13470
    A5        2.07376  -0.00967   0.00000  -0.03490  -0.03492   2.03884
    A6        2.09017   0.00530   0.00000   0.01949   0.01947   2.10965
    A7        2.10867  -0.00340   0.00000  -0.01292  -0.01310   2.09557
    A8        2.06996   0.00238   0.00000   0.01009   0.01018   2.08015
    A9        2.10452   0.00103   0.00000   0.00282   0.00292   2.10744
   A10        2.06327   0.00376   0.00000   0.01416   0.01373   2.07700
   A11        2.13216   0.00472   0.00000   0.01208   0.01293   2.14509
   A12        2.08770  -0.00849   0.00000  -0.02621  -0.02663   2.06106
   A13        2.10339  -0.00367   0.00000  -0.01473  -0.01387   2.08952
   A14        2.09025   0.00209   0.00000   0.00798   0.00885   2.09911
   A15        2.08950   0.00158   0.00000   0.00676   0.00503   2.09452
   A16        2.11247   0.00276   0.00000   0.01101   0.01113   2.12360
   A17        2.03712   0.00320   0.00000   0.00681   0.00856   2.04568
   A18        2.13358  -0.00596   0.00000  -0.01779  -0.01968   2.11390
   A19        2.05634   0.00437   0.00000   0.01731   0.01723   2.07357
   A20        2.10615  -0.00155   0.00000  -0.00773  -0.00769   2.09846
   A21        2.12069  -0.00281   0.00000  -0.00957  -0.00954   2.11115
   A22        2.14858   0.00101   0.00000  -0.00049  -0.00030   2.14828
   A23        2.15956   0.00667   0.00000   0.03057   0.03035   2.18991
   A24        1.97493  -0.00767   0.00000  -0.02988  -0.02994   1.94500
   A25        2.13344  -0.00018   0.00000  -0.00309  -0.00351   2.12994
   A26        2.04934   0.00120   0.00000   0.00463   0.00448   2.05381
   A27        2.10400   0.02454   0.00000   0.09174   0.09055   2.19456
   A28        2.12981  -0.02575   0.00000  -0.09637  -0.09502   2.03479
   A29        2.00357  -0.00160   0.00000  -0.01640  -0.01625   1.98732
   A30        1.88299   0.00311   0.00000   0.02774   0.02770   1.91069
   A31        1.89882   0.00166   0.00000   0.01530   0.01508   1.91390
   A32        1.92146  -0.00208   0.00000  -0.01262  -0.01262   1.90884
   A33        1.87594  -0.00012   0.00000  -0.00386  -0.00376   1.87218
   A34        1.87728  -0.00096   0.00000  -0.01012  -0.01043   1.86686
   A35        1.88546   0.00378   0.00000   0.02854   0.02828   1.91374
   A36        1.84268  -0.00203   0.00000  -0.01866  -0.01858   1.82410
   A37        1.84977   0.00095   0.00000   0.01964   0.01913   1.86891
   A38        1.96381   0.00055   0.00000   0.00077   0.00096   1.96476
   A39        1.91274  -0.00033   0.00000   0.00689   0.00614   1.91888
   A40        2.00103  -0.00250   0.00000  -0.03289  -0.03276   1.96827
   A41        1.95502  -0.00029   0.00000  -0.00827  -0.00792   1.94710
   A42        1.91189  -0.00382   0.00000  -0.02516  -0.02520   1.88668
   A43        1.94705   0.00055   0.00000  -0.00271  -0.00275   1.94430
   A44        1.90035   0.00421   0.00000   0.02835   0.02812   1.92847
   A45        1.90436  -0.00057   0.00000   0.00822   0.00804   1.91240
   A46        1.84126   0.00007   0.00000   0.00107   0.00076   1.84202
   A47        1.96962  -0.00548   0.00000  -0.02456  -0.02456   1.94505
   A48        1.90043   0.00104   0.00000   0.00587   0.00595   1.90638
   A49        1.91171   0.00088   0.00000  -0.00427  -0.00408   1.90763
   A50        1.92321   0.00244   0.00000   0.01394   0.01398   1.93719
   A51        1.89383   0.00306   0.00000   0.01850   0.01833   1.91215
   A52        1.86197  -0.00177   0.00000  -0.00879  -0.00896   1.85301
   A53        1.93955  -0.00154   0.00000  -0.00686  -0.00682   1.93273
   A54        1.91797   0.00461   0.00000   0.02025   0.02032   1.93830
   A55        1.95199  -0.00354   0.00000  -0.01591  -0.01585   1.93614
   A56        1.90346  -0.00324   0.00000  -0.02355  -0.02349   1.87997
   A57        1.85333   0.00493   0.00000   0.03537   0.03541   1.88873
   A58        1.89569  -0.00133   0.00000  -0.00981  -0.00973   1.88595
   A59        1.90889  -0.01920   0.00000  -0.09964  -0.10056   1.80833
   A60        1.91791  -0.00416   0.00000  -0.02248  -0.02248   1.89543
   A61        2.07891   0.00441   0.00000   0.01604   0.01604   2.09495
   A62        1.85045  -0.00471   0.00000  -0.02980  -0.03013   1.82033
   A63        1.96687   0.00125   0.00000   0.01666   0.01691   1.98378
   A64        1.91580   0.00094   0.00000  -0.00104  -0.00141   1.91440
   A65        1.90713   0.00538   0.00000   0.02797   0.02803   1.93516
   A66        1.88706  -0.00211   0.00000  -0.01211  -0.01224   1.87482
   A67        1.93313  -0.00099   0.00000  -0.00357  -0.00345   1.92967
   A68        1.93500   0.00280   0.00000   0.00941   0.00958   1.94458
   A69        1.92273   0.00445   0.00000   0.02276   0.02270   1.94543
   A70        1.92900  -0.00346   0.00000  -0.01856  -0.01941   1.90959
   A71        1.90054  -0.00782   0.00000  -0.03808  -0.03802   1.86252
   A72        1.93085  -0.00125   0.00000  -0.03388  -0.03378   1.89707
   A73        1.84346   0.00532   0.00000   0.06021   0.05988   1.90334
   A74        1.96934  -0.00288   0.00000  -0.01688  -0.01721   1.95213
   A75        1.90295   0.00440   0.00000   0.02571   0.02582   1.92877
   A76        1.93157  -0.00399   0.00000  -0.03802  -0.03836   1.89321
   A77        1.88420  -0.00055   0.00000   0.00006   0.00024   1.88444
   A78        1.90842   0.00147   0.00000   0.00186   0.00093   1.90935
   A79        1.86375   0.00192   0.00000   0.03114   0.03143   1.89519
   A80        2.14496   0.00124   0.00000   0.01018   0.01011   2.15507
   A81        2.02019   0.00002   0.00000  -0.00162  -0.00160   2.01860
   A82        2.11796  -0.00125   0.00000  -0.00849  -0.00847   2.10950
   A83        2.13578   0.00289   0.00000   0.01236   0.01231   2.14809
   A84        2.14277  -0.00213   0.00000  -0.00868  -0.00867   2.13410
   A85        2.00464  -0.00075   0.00000  -0.00366  -0.00366   2.00098
   A86        2.00124  -0.00785   0.00000  -0.03691  -0.03682   1.96442
   A87        1.88816   0.00537   0.00000   0.03672   0.03681   1.92497
   A88        1.91183   0.00049   0.00000  -0.00584  -0.00583   1.90600
   A89        1.89609   0.00119   0.00000  -0.00081  -0.00049   1.89560
   A90        1.89798   0.00352   0.00000   0.02139   0.02119   1.91917
   A91        1.86367  -0.00245   0.00000  -0.01341  -0.01343   1.85023
   A92        1.83392   0.00043   0.00000   0.00234   0.00234   1.83627
[...]
     50          1           0       -5.629251    2.076870   -0.942214
     51          1           0       -3.646986   -1.257223    0.623640
     52          1           0       -3.157361   -1.161414   -1.053783
     53          1           0       -0.307923    1.853327   -0.608132
     54          1           0       -2.697342    3.884610   -1.616348
     55          1           0       -9.045192    0.126877   -1.127321
     56          1           0       -8.203030   -1.341877   -1.724380
     57          1           0       -8.469092   -1.126874    0.021720
     58          1           0       -1.943976   -3.836944    0.370095
 ---------------------------------------------------------------------
 Rotational constants (GHZ):      0.2404506      0.0555147      0.0516478

 **********************************************************************

            Population analysis using the SCF density.

 **********************************************************************

 Orbital symmetries:
       Occupied  (A) (A) (A) (A) (A) (A) (A) (A) (A) (A) (A) (A)
                 (A) (A) (A) (A) (A) (A) (A) (A) (A) (A) (A) (A)
                 (A) (A) (A) (A) (A) (A) (A) (A) (A) (A) (A) (A)
                 (A) (A) (A) (A) (A) (A) (A) (A) (A) (A) (A) (A)
                 (A) (A) (A) (A) (A) (A) (A) (A) (A) (A) (A) (A)
                 (A) (A) (A) (A) (A) (A) (A) (A) (A) (A) (A) (A)
                 (A) (A) (A) (A) (A) (A) (A) (A) (A) (A) (A) (A)
                 (A) (A) (A) (A) (A) (A) (A) (A) (A) (A) (A) (A)
                 (A) (A) (A) (A) (A) (A) (A) (A) (A) (A) (A) (A)
                 (A) (A) (A) (A) (A) (A) (A) (A) (A) (A) (A) (A)
                 (A) (A) (A) (A) (A)
       Virtual   (A) (A) (A) (A) (A) (A) (A) (A) (A) (A) (A) (A)
                 (A) (A) (A) (A) (A) (A) (A) (A) (A) (A) (A) (A)
                 (A) (A) (A) (A) (A) (A) (A) (A) (A) (A) (A) (A)
                 (A) (A) (A) (A) (A) (A) (A) (A) (A) (A) (A) (A)
                 (A) (A) (A) (A) (A) (A) (A) (A) (A) (A) (A) (A)
                 (A) (A) (A) (A) (A) (A) (A) (A) (A) (A) (A) (A)
                 (A) (A) (A) (A) (A) (A) (A) (A) (A) (A) (A) (A)
                 (A) (A) (A) (A) (A) (A) (A) (A) (A) (A) (A) (A)
                 (A) (A) (A) (A) (A) (A) (A) (A) (A) (A) (A) (A)
                 (A) (A) (A) (A) (A) (A) (A) (A) (A) (A) (A) (A)
                 (A) (A) (A) (A) (A) (A) (A) (A) (A) (A) (A) (A)
                 (A) (A) (A) (A) (A) (A) (A) (A) (A) (A) (A) (A)
                 (A) (A) (A) (A) (A) (A) (A) (A) (A) (A) (A) (A)
                 (A) (A) (A) (A) (A) (A) (A) (A) (A) (A) (A) (A)
                 (A) (A) (A) (A) (A) (A) (A) (A) (A) (A) (A) (A)
                 (A) (A) (A) (A) (A) (A) (A) (A) (A) (A) (A) (A)
                 (A) (A) (A) (A) (A) (A) (A) (A) (A) (A) (A) (A)
                 (A) (A) (A) (A) (A) (A) (A) (A) (A) (A) (A) (A)
                 (A) (A) (A) (A) (A) (A) (A) (A) (A) (A) (A) (A)
                 (A) (A) (A) (A) (A) (A) (A) (A) (A) (A) (A) (A)
                 (A) (A) (A) (A) (A) (A) (A) (A) (A) (A) (A) (A)
                 (A) (A) (A) (A) (A) (A) (A) (A) (A) (A) (A) (A)
                 (A) (A) (A) (A) (A) (A) (A) (A) (A) (A) (A) (A)
                 (A) (A) (A) (A) (A) (A) (A) (A) (A) (A) (A) (A)
                 (A) (A) (A) (A) (A) (A) (A) (A) (A) (A) (A) (A)
                 (A) (A) (A) (A) (A) (A) (A) (A) (A) (A) (A) (A)
                 (A) (A) (A) (A) (A) (A) (A) (A) (A) (A) (A) (A)
                 (A) (A) (A) (A) (A) (A) (A) (A) (A) (A) (A) (A)
                 (A) (A) (A) (A) (A) (A) (A) (A) (A) (A) (A) (A)
                 (A) (A) (A) (A) (A) (A) (A) (A) (A) (A) (A) (A)
                 (A) (A) (A) (A) (A) (A) (A) (A) (A) (A) (A) (A)
                 (A) (A) (A) (A) (A) (A) (A) (A) (A) (A) (A) (A)
                 (A) (A) (A) (A) (A) (A) (A) (A) (A) (A) (A) (A)
                 (A) (A) (A) (A) (A) (A) (A) (A) (A) (A) (A) (A)
                 (A) (A) (A) (A) (A) (A) (A) (A) (A) (A) (A) (A)
                 (A) (A) (A) (A) (A) (A) (A) (A) (A) (A) (A) (A)
                 (A)
 The electronic state is 1-A.
 Alpha  occ. eigenvalues --  -19.22130 -19.21698 -19.19778 -19.19720 -19.17988
 Alpha  occ. eigenvalues --  -19.17145 -19.16424 -19.16234 -19.15062 -19.14303
 Alpha  occ. eigenvalues --  -19.14042 -10.33855 -10.32842 -10.32019 -10.28248
 Alpha  occ. eigenvalues --  -10.27270 -10.27044 -10.26720 -10.25725 -10.25233
 Alpha  occ. eigenvalues --  -10.24740 -10.24502 -10.22740 -10.21847 -10.21786
 Alpha  occ. eigenvalues --  -10.21599 -10.21160 -10.21061 -10.20853 -10.20784
 Alpha  occ. eigenvalues --  -10.20210 -10.19936 -10.19856 -10.17789  -1.12748
 Alpha  occ. eigenvalues --   -1.12511  -1.10629  -1.07947  -1.06526  -1.06362
 Alpha  occ. eigenvalues --   -1.03996  -1.03658  -1.02910  -1.01898  -1.01723
 Alpha  occ. eigenvalues --   -0.88040  -0.86204  -0.84744  -0.80741  -0.79392
 Alpha  occ. eigenvalues --   -0.77038  -0.76514  -0.75685  -0.74857  -0.72370
 Alpha  occ. eigenvalues --   -0.70237  -0.68818  -0.66846  -0.65803  -0.64314
 Alpha  occ. eigenvalues --   -0.64225  -0.63303  -0.61585  -0.58950  -0.57897
 Alpha  occ. eigenvalues --   -0.57158  -0.55890  -0.54920  -0.54484  -0.53676
 Alpha  occ. eigenvalues --   -0.53006  -0.51997  -0.51246  -0.50274  -0.49266
 Alpha  occ. eigenvalues --   -0.48922  -0.48611  -0.48449  -0.47882  -0.47550
 Alpha  occ. eigenvalues --   -0.47143  -0.46704  -0.46189  -0.45493  -0.44876
 Alpha  occ. eigenvalues --   -0.44193  -0.44012  -0.43880  -0.43644  -0.42704
 Alpha  occ. eigenvalues --   -0.42601  -0.42026  -0.41660  -0.41360  -0.41051
 Alpha  occ. eigenvalues --   -0.40797  -0.39955  -0.39683  -0.39072  -0.38860
 Alpha  occ. eigenvalues --   -0.38506  -0.38201  -0.37771  -0.37314  -0.37161
 Alpha  occ. eigenvalues --   -0.36388  -0.35683  -0.35584  -0.35146  -0.34754
 Alpha  occ. eigenvalues --   -0.34094  -0.33803  -0.33626  -0.33559  -0.30761
 Alpha  occ. eigenvalues --   -0.30656  -0.28920  -0.28704  -0.28430  -0.27810
 Alpha  occ. eigenvalues --   -0.27574  -0.26401  -0.26218  -0.23689  -0.21725
 Alpha virt. eigenvalues --   -0.04833  -0.04690  -0.02959  -0.02028   0.03653
 Alpha virt. eigenvalues --    0.05088   0.05328   0.06234   0.06471   0.07224
 Alpha virt. eigenvalues --    0.07692   0.09273   0.09886   0.10283   0.10876
 Alpha virt. eigenvalues --    0.11196   0.11883   0.12490   0.12700   0.13435
 Alpha virt. eigenvalues --    0.13881   0.14621   0.14866   0.15456   0.15690
 Alpha virt. eigenvalues --    0.15940   0.16038   0.16561   0.16766   0.17293
 Alpha virt. eigenvalues --    0.17649   0.17810   0.18137   0.18532   0.19054
 Alpha virt. eigenvalues --    0.19296   0.20108   0.20227   0.21244   0.21701
 Alpha virt. eigenvalues --    0.21860   0.22703   0.22993   0.24115   0.24722
 Alpha virt. eigenvalues --    0.25473   0.25977   0.26676   0.27091   0.27795
 Alpha virt. eigenvalues --    0.27833   0.28689   0.29865   0.31688   0.32375
 Alpha virt. eigenvalues --    0.32927   0.33533   0.34519   0.35814   0.37464
 Alpha virt. eigenvalues --    0.39246   0.39954   0.40293   0.40852   0.43074
 Alpha virt. eigenvalues --    0.43448   0.45796   0.47146   0.48492   0.49005
 Alpha virt. eigenvalues --    0.50342   0.50544   0.51003   0.51341   0.51917
 Alpha virt. eigenvalues --    0.52451   0.52701   0.53011   0.53270   0.54395
 Alpha virt. eigenvalues --    0.54529   0.55308   0.55536   0.55908   0.56084
 Alpha virt. eigenvalues --    0.56626   0.57271   0.57524   0.58220   0.58903
 Alpha virt. eigenvalues --    0.58946   0.59486   0.60360   0.61323   0.61686
 Alpha virt. eigenvalues --    0.62046   0.62640   0.63229   0.63536   0.63811
 Alpha virt. eigenvalues --    0.64790   0.65196   0.65419   0.66417   0.67084
 Alpha virt. eigenvalues --    0.68193   0.68422   0.68871   0.69854   0.70739
 Alpha virt. eigenvalues --    0.70771   0.71092   0.71503   0.71825   0.72693
 Alpha virt. eigenvalues --    0.73249   0.73385   0.73931   0.74826   0.75472
 Alpha virt. eigenvalues --    0.76215   0.76449   0.76951   0.78079   0.78501
 Alpha virt. eigenvalues --    0.79014   0.79461   0.80751   0.82195   0.82290
 Alpha virt. eigenvalues --    0.82867   0.83191   0.83831   0.83941   0.84400
 Alpha virt. eigenvalues --    0.84988   0.86048   0.86335   0.86765   0.87211
 Alpha virt. eigenvalues --    0.87590   0.88175   0.88913   0.89702   0.90056
 Alpha virt. eigenvalues --    0.91241   0.91406   0.91745   0.92074   0.92596
 Alpha virt. eigenvalues --    0.93016   0.93504   0.94040   0.94127   0.95353
 Alpha virt. eigenvalues --    0.95668   0.95897   0.96521   0.97105   0.97370
 Alpha virt. eigenvalues --    0.97838   0.98589   0.99077   0.99483   1.00528
 Alpha virt. eigenvalues --    1.00923   1.01543   1.02049   1.02910   1.03488
 Alpha virt. eigenvalues --    1.04138   1.04608   1.05183   1.05750   1.07563
 Alpha virt. eigenvalues --    1.08010   1.08839   1.09573   1.10581   1.10854
 Alpha virt. eigenvalues --    1.11926   1.13126   1.13216   1.14848   1.15897
 Alpha virt. eigenvalues --    1.16559   1.17051   1.18348   1.18545   1.19842
 Alpha virt. eigenvalues --    1.21162   1.21738   1.22222   1.22965   1.23711
 Alpha virt. eigenvalues --    1.25102   1.26215   1.26409   1.28675   1.29794
 Alpha virt. eigenvalues --    1.30642   1.30935   1.32407   1.33285   1.33747
 Alpha virt. eigenvalues --    1.34408   1.35059   1.35896   1.36657   1.37347
 Alpha virt. eigenvalues --    1.37941   1.38498   1.38983   1.39935   1.40940
 Alpha virt. eigenvalues --    1.42098   1.42453   1.42759   1.43165   1.44215
 Alpha virt. eigenvalues --    1.45283   1.45716   1.47308   1.49085   1.50973
 Alpha virt. eigenvalues --    1.51754   1.53161   1.55462   1.57001   1.57598
 Alpha virt. eigenvalues --    1.59455   1.61898   1.62354   1.63967   1.64660
 Alpha virt. eigenvalues --    1.65777   1.66160   1.66616   1.67356   1.68107
 Alpha virt. eigenvalues --    1.69821   1.69924   1.70506   1.70567   1.71178
 Alpha virt. eigenvalues --    1.71650   1.71866   1.72697   1.73624   1.74413
 Alpha virt. eigenvalues --    1.74512   1.75547   1.76000   1.76793   1.77319
 Alpha virt. eigenvalues --    1.77601   1.78216   1.79403   1.80896   1.81017
 Alpha virt. eigenvalues --    1.81496   1.81728   1.82231   1.83098   1.83615
 Alpha virt. eigenvalues --    1.83790   1.84895   1.85556   1.85949   1.86178
 Alpha virt. eigenvalues --    1.86198   1.86983   1.87341   1.88594   1.89818
 Alpha virt. eigenvalues --    1.90005   1.90358   1.91485   1.92295   1.93075
 Alpha virt. eigenvalues --    1.93910   1.94182   1.94505   1.94806   1.95617
 Alpha virt. eigenvalues --    1.96380   1.97749   1.98360   1.98754   2.00067
 Alpha virt. eigenvalues --    2.00693   2.01643   2.02885   2.03055   2.03312
 Alpha virt. eigenvalues --    2.03935   2.04961   2.05982   2.06382   2.06959
 Alpha virt. eigenvalues --    2.08329   2.08952   2.09894   2.10012   2.10548
 Alpha virt. eigenvalues --    2.11732   2.12815   2.14050   2.14199   2.17635
 Alpha virt. eigenvalues --    2.18780   2.20018   2.20303   2.21609   2.22987
 Alpha virt. eigenvalues --    2.24079   2.24407   2.25852   2.26722   2.27579
 Alpha virt. eigenvalues --    2.28453   2.28993   2.30116   2.30690   2.31610
 Alpha virt. eigenvalues --    2.31951   2.33031   2.33312   2.33717   2.34098
 Alpha virt. eigenvalues --    2.35403   2.35591   2.36612   2.38054   2.39218
 Alpha virt. eigenvalues --    2.40079   2.40858   2.42013   2.43014   2.43506
 Alpha virt. eigenvalues --    2.44321   2.45036   2.46294   2.47705   2.48045
 Alpha virt. eigenvalues --    2.48283   2.50571   2.51950   2.52938   2.54056
 Alpha virt. eigenvalues --    2.54609   2.54784   2.56643   2.56939   2.57476
 Alpha virt. eigenvalues --    2.58962   2.61041   2.61794   2.63320   2.63972
 Alpha virt. eigenvalues --    2.65910   2.67025   2.68419   2.69229   2.69529
 Alpha virt. eigenvalues --    2.70361   2.70775   2.72037   2.74601   2.74877
 Alpha virt. eigenvalues --    2.76264   2.76829   2.78191   2.79556   2.81398
 Alpha virt. eigenvalues --    2.84286   2.85780   2.86514   2.90132   2.90635
 Alpha virt. eigenvalues --    2.91706   2.93367   2.94565   2.96702   2.97229
 Alpha virt. eigenvalues --    2.99144   3.00537   3.02714   3.05765   3.07471
 Alpha virt. eigenvalues --    3.07836   3.09885   3.12115   3.14200   3.16236
 Alpha virt. eigenvalues --    3.22524   3.23340   3.43676   3.50264   3.78236
 Alpha virt. eigenvalues --    3.89054   3.91402   3.94659   3.96302   3.99519
 Alpha virt. eigenvalues --    4.05393   4.06594   4.08061   4.13881   4.17654
 Alpha virt. eigenvalues --    4.18124   4.18660   4.21126   4.24366   4.24793
 Alpha virt. eigenvalues --    4.25789   4.30937   4.31951   4.34782   4.36035
 Alpha virt. eigenvalues --    4.40282   4.47873   4.50279   4.51621   4.52496
 Alpha virt. eigenvalues --    4.55363   4.56212   4.58512   4.65137   4.71360
 Alpha virt. eigenvalues --    4.75238   4.81065   4.88080
          Condensed to atoms (all electrons):
 Mulliken atomic charges:
              1
     1  C    0.093507
     2  C    0.324241
     3  C   -0.308609
     4  C    0.139852
     5  C   -0.062953
     6  C    0.240170
     7  C    0.054378
     8  C    0.278686
     9  O   -0.497802
    10  C    0.597014
    11  C   -0.371737
    12  C    0.246308
    13  C   -0.302991
    14  C   -0.360831
    15  C   -0.513717
    16  O   -0.650724
    17  O   -0.637238
    18  O   -0.533290
    19  O   -0.551858
    20  C    0.126677
    21  C    0.093525
    22  C    0.108569
    23  C   -0.158883
    24  C    0.057871
    25  C   -0.365005
    26  O   -0.652592
    27  O   -0.638105
    28  C    0.604793
    29  O   -0.465113
    30  O   -0.493522
    31  C   -0.217001
    32  C    0.587392
    33  O   -0.568573
    34  O   -0.464993
    35  H    0.121185
    36  H    0.164405
    37  H    0.186788
    38  H    0.166762
    39  H    0.168982
    40  H    0.188360
    41  H    0.176649
    42  H    0.176238
    43  H    0.167958
    44  H    0.170465
    45  H    0.447760
    46  H    0.414362
    47  H    0.138413
    48  H    0.140780
    49  H    0.142168
    50  H    0.179419
    51  H    0.179299
    52  H    0.180548
    53  H    0.414101
    54  H    0.409082
    55  H    0.166968
    56  H    0.171335
    57  H    0.171666
    58  H    0.418864
 Sum of Mulliken atomic charges =   0.00000
 Mulliken charges with hydrogens summed into heavy atoms:
              1
     1  C    0.093507
     2  C    0.324241
     3  C   -0.187424
     4  C    0.139852
     5  C   -0.062953
     6  C    0.240170
     7  C    0.054378
     8  C    0.278686
     9  O   -0.497802
    10  C    0.597014
    11  C   -0.020544
    12  C    0.246308
    13  C    0.032752
    14  C    0.004177
    15  C    0.000944
    16  O   -0.202964
    17  O   -0.222876
    18  O   -0.533290
    19  O   -0.551858
    20  C    0.265090
    21  C    0.234306
    22  C    0.250737
    23  C    0.020536
    24  C    0.057871
    25  C   -0.005158
    26  O   -0.238492
    27  O   -0.229023
    28  C    0.604793
    29  O   -0.465113
    30  O   -0.493522
    31  C    0.292968
    32  C    0.587392
    33  O   -0.149710
    34  O   -0.464993
 Sum of Mulliken charges with hydrogens summed into heavy atoms =   0.00000
 Electronic spatial extent (au):  <R**2>=          20439.2128
 Charge=              0.0000 electrons
 Dipole moment (field-independent basis, Debye):
    X=             -3.0123    Y=             -4.0272    Z=             -0.6572  Tot=              5.0719
 Quadrupole moment (field-independent basis, Debye-Ang):
   XX=           -202.2080   YY=           -195.4304   ZZ=           -196.6801
   XY=            -16.2189   XZ=             -2.5335   YZ=              5.9143
 Traceless Quadrupole moment (field-independent basis, Debye-Ang):
   XX=             -4.1018   YY=              2.6758   ZZ=              1.4261
   XY=            -16.2189   XZ=             -2.5335   YZ=              5.9143
 Octapole moment (field-independent basis, Debye-Ang**2):
  XXX=           -374.9567  YYY=            -79.7235  ZZZ=             -8.8102  XYY=              2.4608
  XXY=            -53.1762  XXZ=            -30.4238  XZZ=             -3.6052  YZZ=              1.8975
  YYZ=            -32.0917  XYZ=            -37.7852
 Hexadecapole moment (field-independent basis, Debye-Ang**3):
 XXXX=         -19199.5078 YYYY=          -3101.1909 ZZZZ=          -1961.3704 XXXY=            -91.2736
 XXXZ=            267.4022 YYYX=            -56.7832 YYYZ=             35.2525 ZZZX=             53.5365
 ZZZY=             73.1017 XXYY=          -4339.7011 XXZZ=          -3840.6013 YYZZ=           -935.7499
 XXYZ=             57.3973 YYXZ=           -109.9265 ZZXY=             -6.9473
 N-N= 3.679452367231D+03 E-N=-1.137217379095D+04  KE= 1.703112664567D+03
 1\1\GINC-B0802\FOpt\RB3LYP\6-31G(d)\C23H24O11\CAOFEI\02-Feb-2021\0\\# 
 opt b3lyp/6-31g(d) geom=connectivity\\Title Card Required\\0,1\C,4.535
 5686905,-0.7112146158,4.0536070034\C,3.4855115373,0.2114983168,4.17487
 83204\C,2.6997500842,0.6137287841,3.085530581\C,2.9510622018,0.0979262
 308,1.8141941322\C,4.0126752118,-0.8310717116,1.6516285463\C,4.7954701
 775,-1.2237480151,2.7751005742\C,2.1837674393,0.4678235391,0.633847866
 1\C,2.5261575053,-0.0639852021,-0.5606166356\O,3.5495971891,-0.9643546
 092,-0.707651173\C,4.3161502935,-1.384306735,0.3537423998\C,1.03972984
 87,1.4539749949,0.7414105427\C,0.1212806938,1.4738681052,-0.497792801\
 C,0.9693315111,1.4752807753,-1.7788935514\C,1.8471745202,0.2221827408,
 -1.8657742847\C,5.3666992112,-1.1368429306,5.2355536005\O,5.8064629095
 ,-2.0976134843,2.6486158351\O,3.2549555885,0.7127575701,5.4213196692\O
 ,5.2034065386,-2.1983689725,0.1060574564\O,-0.6934559877,0.2992850307,
 -0.3552463871\C,-1.6251090627,-0.0667585885,-1.385617349\C,-1.81257293
 43,-1.5763643415,-1.2304627909\C,-2.6832601673,-2.1243480691,-2.357214
 3105\C,-3.9406119217,-1.315394093,-2.5042534211\C,-4.0693529508,-0.066
 923446,-2.0281052827\C,-2.9766980613,0.6509498979,-1.260660953\O,-0.57
 69865365,-2.279061428,-1.2798001325\O,-3.0411796772,-3.479746578,-2.12
 41735626\C,-5.3284971676,0.7125119621,-2.1946387498\O,-6.2804946841,0.
 0560635249,-2.8935886145\O,-5.4872224125,1.8312588421,-1.7418128412\C,
 -7.5160615246,0.7670746352,-3.0640594923\C,-0.7547118171,2.7410928808,
 -0.4466436162\O,-1.4754274111,2.8115775705,0.6948419619\O,-0.804093755
 5,3.5895009596,-1.3091900434\H,1.9025832435,1.3337270723,3.2454084336\
 H,1.4353595548,2.4649995285,0.9156402204\H,0.4092395606,1.2144383421,1
 .6031590745\H,1.5957259453,2.3735686333,-1.7566279542\H,0.3421956177,1
 .5750604642,-2.6684704249\H,1.254184415,-0.6552645142,-2.1568725431\H,
 2.6114624407,0.3473573839,-2.6417088389\H,5.6488378325,-2.1891843008,5
 .1447866985\H,6.2978968501,-0.5583314364,5.2969863629\H,4.8212761777,-
 0.9893033893,6.1699574935\H,5.8442196546,-2.3655636832,1.6932887395\H,
 2.4943223565,1.3135521131,5.3853903083\H,-1.187510842,0.1258036014,-2.
 3735672261\H,-2.3249595516,-1.7721932005,-0.2755616693\H,-2.0999701253
 ,-2.0499355655,-3.2939673625\H,-4.7595040331,-1.7925448233,-3.03327930
 04\H,-2.9111512652,1.6830518222,-1.6186179199\H,-3.2483489558,0.716307
 9257,-0.1993353931\H,-0.0294390529,-1.9125972942,-0.5654488413\H,-2.20
 56000808,-3.9506965155,-1.9663083974\H,-8.1577498794,0.1013634028,-3.6
 419039948\H,-7.9680888777,0.9907453123,-2.0940075268\H,-7.3493606655,1
 .7041715821,-3.6020132554\H,-2.01463539,3.6232140085,0.6289408499\\Ver
 sion=EM64L-G09RevB.01\State=1-A\HF=-1718.3730451\RMSD=9.252e-09\RMSF=1
 .618e-05\Dipole=-1.4320886,1.3412808,0.3631472\Quadrupole=-6.5372518,-
 3.7779799,10.3152317,7.2731426,1.3132492,6.2567578\PG=C01 [X(C23H24O11
 )]\\@


 GETTING A SIMPLE ANSWER FROM A PROFESSOR IS LIKE
 GETTING A THIMBLE OF WATER FROM A FIRE HYDRANT.
     -- PROF. LEN SHAPIRO, NDSU
 Job cpu time:  0 days  3 hours  2 minutes 35.6 seconds.
 File lengths (MBytes):  RWF=    201 Int=      0 D2E=      0 Chk=     21 Scr=      1
 Normal termination of Gaussian 09 at Tue Feb  2 11:23:33 2021.
