 Entering Gaussian System, Link 0=g09
 Initial command:
 /public/software/g09/g09/l1.exe /tmp/Gau-30846.inp -scrdir=/tmp/
 Entering Link 1 = /public/software/g09/g09/l1.exe PID=     30848.
  
 Copyright (c) 1988,1990,1992,1993,1995,1998,2003,2009,2010,
            Gaussian, Inc.  All Rights Reserved.
  
 This is part of the Gaussian(R) 09 program.  It is based on
 the Gaussian(R) 03 system (copyright 2003, Gaussian, Inc.),
 the Gaussian(R) 98 system (copyright 1998, Gaussian, Inc.),
 the Gaussian(R) 94 system (copyright 1995, Gaussian, Inc.),
 the Gaussian 92(TM) system (copyright 1992, Gaussian, Inc.),
 the Gaussian 90(TM) system (copyright 1990, Gaussian, Inc.),
 the Gaussian 88(TM) system (copyright 1988, Gaussian, Inc.),
 the Gaussian 86(TM) system (copyright 1986, Carnegie Mellon
 University), and the Gaussian 82(TM) system (copyright 1983,
 Carnegie Mellon University). Gaussian is a federally registered
 trademark of Gaussian, Inc.
  
 This software contains proprietary and confidential information,
 including trade secrets, belonging to Gaussian, Inc.
  
 This software is provided under written license and may be
 used, copied, transmitted, or stored only in accord with that
 written license.
  
 The following legend is applicable only to US Government
 contracts under FAR:
  
                    RESTRICTED RIGHTS LEGEND
  
 Use, reproduction and disclosure by the US Government is
 subject to restrictions as set forth in subparagraphs (a)
 and (c) of the Commercial Computer Software - Restricted
 Rights clause in FAR 52.227-19.
  
 Gaussian, Inc.
 340 Quinnipiac St., Bldg. 40, Wallingford CT 06492
  
  
 ---------------------------------------------------------------
 Warning -- This program may not be used in any manner that
 competes with the business of Gaussian, Inc. or will provide
 assistance to any competitor of Gaussian, Inc.  The licensee
 of this program is prohibited from giving any competitor of
 Gaussian, Inc. access to this program.  By using this program,
 the user acknowledges that Gaussian, Inc. is engaged in the
 business of creating and licensing software in the field of
 computational chemistry and represents and warrants to the
 licensee that it is not a competitor of Gaussian, Inc. and that
 it will not use this program in any manner prohibited above.
 ---------------------------------------------------------------
  

 Cite this work as:
 Gaussian 09, Revision B.01,
 M. J. Frisch, G. W. Trucks, H. B. Schlegel, G. E. Scuseria, 
 M. A. Robb, J. R. Cheeseman, G. Scalmani, V. Barone, B. Mennucci, 
 G. A. Petersson, H. Nakatsuji, M. Caricato, X. Li, H. P. Hratchian, 
 A. F. Izmaylov, J. Bloino, G. Zheng, J. L. Sonnenberg, M. Hada, 
 M. Ehara, K. Toyota, R. Fukuda, J. Hasegawa, M. Ishida, T. Nakajima, 
 Y. Honda, O. Kitao, H. Nakai, T. Vreven, J. A. Montgomery, Jr., 
 J. E. Peralta, F. Ogliaro, M. Bearpark, J. J. Heyd, E. Brothers, 
 K. N. Kudin, V. N. Staroverov, T. Keith, R. Kobayashi, J. Normand, 
 K. Raghavachari, A. Rendell, J. C. Burant, S. S. Iyengar, J. Tomasi, 
 M. Cossi, N. Rega, J. M. Millam, M. Klene, J. E. Knox, J. B. Cross, 
 V. Bakken, C. Adamo, J. Jaramillo, R. Gomperts, R. E. Stratmann, 
 O. Yazyev, A. J. Austin, R. Cammi, C. Pomelli, J. W. Ochterski, 
 R. L. Martin, K. Morokuma, V. G. Zakrzewski, G. A. Voth, 
 P. Salvador, J. J. Dannenberg, S. Dapprich, A. D. Daniels, 
 O. Farkas, J. B. Foresman, J. V. Ortiz, J. Cioslowski, 
 and D. J. Fox, Gaussian, Inc., Wallingford CT, 2010.
 
 ******************************************
 Gaussian 09:  EM64L-G09RevB.01 12-Aug-2010
                 2-Feb-2021 
 ******************************************
 %mem=600MW
 %nprocshared=10
 Will use up to   10 processors via shared memory.
 --------------------------------------
 # opt b3lyp/6-31g(d) geom=connectivity
 --------------------------------------
 1/14=-1,18=20,19=15,26=3,38=1,57=2/1,3;
 2/9=110,12=2,17=6,18=5,40=1/2;
 3/5=1,6=6,7=1,11=2,16=1,25=1,30=1,71=1,74=-5/1,2,3;
 4//1;
 5/5=2,38=5/2;
 6/7=2,8=2,9=2,10=2,28=1/1;
 7//1,2,3,16;
 1/14=-1,18=20,19=15/3(2);
 2/9=110/2;
 99//99;
 2/9=110/2;
 3/5=1,6=6,7=1,11=2,16=1,25=1,30=1,71=1,74=-5/1,2,3;
 4/5=5,16=3/1;
 5/5=2,38=5/2;
 7//1,2,3,16;
 1/14=-1,18=20,19=15/3(-5);
 2/9=110/2;
 6/7=2,8=2,9=2,10=2,19=2,28=1/1;
 99/9=1/99;
 -------------------
 Title Card Required
 -------------------
 Symbolic Z-matrix:
 Charge =  0 Multiplicity = 1
 C                     5.29682  -0.93416   2.83334 
 C                     4.32328   0.00851   3.17621 
 C                     3.31577   0.37819   2.28164 
 C                     3.24194  -0.18372   1.00016 
 C                     4.219    -1.11927   0.63553 
 C                     5.23387  -1.49032   1.54589 
 C                     2.18777   0.18642   0.03944 
 C                     2.23348  -0.36587  -1.18345 
 O                     3.21527  -1.2972   -1.56958 
 C                     4.19176  -1.71448  -0.71938 
 C                     1.09173   1.15789   0.43316 
 C                    -0.11723   1.20905  -0.54788 
 C                     0.43469   1.21002  -1.98604 
 C                     1.2614   -0.04005  -2.28058 
 C                     6.37723  -1.32818   3.80243 
 O                     6.20531  -2.40594   1.21622 
 O                     4.28558   0.63183   4.39265 
 O                     5.03354  -2.54528  -1.05071 
 O                    -0.9053    0.04249  -0.25406 
 C                    -2.05566  -0.25492  -1.06582 
 C                    -2.41565  -1.72112  -0.76415 
 C                    -3.61212  -2.17928  -1.61277 
 C                    -4.72981  -1.18889  -1.62102 
 C                    -4.5834    0.08609  -1.21498 
 C                    -3.26373   0.64503  -0.75294 
 O                    -1.29037  -2.57129  -1.04589 
 O                    -4.11191  -3.40619  -1.08696 
 C                    -5.77764   0.97464  -1.25795 
 O                    -5.52241   2.12056  -0.57657 
 O                    -6.82333   0.70148  -1.82597 
 C                    -6.61852   3.03615  -0.55956 
 C                    -0.83493   2.54296  -0.26253 
 O                    -1.34309   2.62156   0.98548 
 O                    -0.98904   3.46987  -1.04182 
 H                     2.59678   1.12042   2.61905 
 H                     1.54299   2.15518   0.52771 
 H                     0.70498   0.87413   1.42125 
 H                     1.06517   2.09785  -2.13763 
 H                    -0.36994   1.29311  -2.72537 
 H                     0.60384  -0.90234  -2.43721 
 H                     1.80625   0.11616  -3.21946 
 H                     7.03885  -2.10836   3.41559 
 H                     7.00051  -0.45986   4.0403 
 H                     5.93118  -1.71705   4.72398 
 H                     6.05556  -2.72525   0.29793 
 H                     5.02251   0.32375   4.94372 
 H                    -1.7868   -0.18593  -2.12497 
 H                    -2.62583  -1.85314   0.30547 
 H                    -3.29936  -2.38033  -2.64414 
 H                    -5.69325  -1.55363  -1.97421 
 H                    -3.09991   1.61481  -1.23554 
 H                    -3.31376   0.82941   0.32741 
 H                    -0.54422  -2.17581  -0.55288 
 H                    -3.3345   -3.99354  -1.02301 
 H                    -6.31412   3.91743   0.0118 
 H                    -6.86955   3.35301  -1.57672 
 H                    -7.48645   2.58698  -0.06662 
 H                    -1.78524   3.49641   1.02203 
 

 GradGradGradGradGradGradGradGradGradGradGradGradGradGradGradGradGradGrad
 Berny optimization.
 Initialization pass.
                           ----------------------------
                           !    Initial Parameters    !
                           ! (Angstroms and Degrees)  !
 --------------------------                            --------------------------
 ! Name  Definition              Value          Derivative Info.                !
 --------------------------------------------------------------------------------
 ! R1    R(1,2)                  1.3978         estimate D2E/DX2                !
 ! R2    R(1,6)                  1.4039         estimate D2E/DX2                !
 ! R3    R(1,15)                 1.5039         estimate D2E/DX2                !
 ! R4    R(2,3)                  1.3971         estimate D2E/DX2                !
 ! R5    R(2,17)                 1.3674         estimate D2E/DX2                !
 ! R6    R(3,4)                  1.4012         estimate D2E/DX2                !
 ! R7    R(3,35)                 1.0871         estimate D2E/DX2                !
 ! R8    R(4,5)                  1.401          estimate D2E/DX2                !
 ! R9    R(4,7)                  1.4735         estimate D2E/DX2                !
 ! R10   R(5,6)                  1.4129         estimate D2E/DX2                !
 ! R11   R(5,10)                 1.4801         estimate D2E/DX2                !
 ! R12   R(6,16)                 1.375          estimate D2E/DX2                !
 ! R13   R(7,8)                  1.3426         estimate D2E/DX2                !
 ! R14   R(7,11)                 1.5166         estimate D2E/DX2                !
 ! R15   R(8,9)                  1.4073         estimate D2E/DX2                !
 ! R16   R(8,14)                 1.5016         estimate D2E/DX2                !
 ! R17   R(9,10)                 1.3603         estimate D2E/DX2                !
 ! R18   R(10,18)                1.2282         estimate D2E/DX2                !
 ! R19   R(11,12)                1.5578         estimate D2E/DX2                !
 ! R20   R(11,36)                1.0987         estimate D2E/DX2                !
 ! R21   R(11,37)                1.0984         estimate D2E/DX2                !
 ! R22   R(12,13)                1.5404         estimate D2E/DX2                !
 ! R23   R(12,19)                1.4381         estimate D2E/DX2                !
 ! R24   R(12,32)                1.5414         estimate D2E/DX2                !
 ! R25   R(13,14)                1.5274         estimate D2E/DX2                !
 ! R26   R(13,38)                1.0994         estimate D2E/DX2                !
 ! R27   R(13,39)                1.0959         estimate D2E/DX2                !
 ! R28   R(14,40)                1.0957         estimate D2E/DX2                !
 ! R29   R(14,41)                1.0967         estimate D2E/DX2                !
 ! R30   R(15,42)                1.0936         estimate D2E/DX2                !
 ! R31   R(15,43)                1.095          estimate D2E/DX2                !
 ! R32   R(15,44)                1.0952         estimate D2E/DX2                !
 ! R33   R(16,45)                0.9837         estimate D2E/DX2                !
 ! R34   R(17,46)                0.9704         estimate D2E/DX2                !
 ! R35   R(18,45)                1.7017         estimate D2E/DX2                !
 ! R36   R(19,20)                1.439          estimate D2E/DX2                !
 ! R37   R(20,21)                1.5396         estimate D2E/DX2                !
 ! R38   R(20,25)                1.5386         estimate D2E/DX2                !
 ! R39   R(20,47)                1.0949         estimate D2E/DX2                !
 ! R40   R(21,22)                1.5368         estimate D2E/DX2                !
 ! R41   R(21,26)                1.4382         estimate D2E/DX2                !
 ! R42   R(21,48)                1.098          estimate D2E/DX2                !
 ! R43   R(22,23)                1.4934         estimate D2E/DX2                !
 ! R44   R(22,27)                1.4253         estimate D2E/DX2                !
 ! R45   R(22,49)                1.0963         estimate D2E/DX2                !
 ! R46   R(23,24)                1.3461         estimate D2E/DX2                !
 ! R47   R(23,50)                1.089          estimate D2E/DX2                !
 ! R48   R(24,25)                1.5058         estimate D2E/DX2                !
 ! R49   R(24,28)                1.4891         estimate D2E/DX2                !
 ! R50   R(25,51)                1.0955         estimate D2E/DX2                !
 ! R51   R(25,52)                1.0971         estimate D2E/DX2                !
 ! R52   R(26,53)                0.9779         estimate D2E/DX2                !
 ! R53   R(27,54)                0.9764         estimate D2E/DX2                !
 ! R54   R(28,29)                1.3574         estimate D2E/DX2                !
 ! R55   R(28,30)                1.221          estimate D2E/DX2                !
 ! R56   R(29,31)                1.4283         estimate D2E/DX2                !
 ! R57   R(31,55)                1.0935         estimate D2E/DX2                !
 ! R58   R(31,56)                1.0945         estimate D2E/DX2                !
 ! R59   R(31,57)                1.0946         estimate D2E/DX2                !
 ! R60   R(32,33)                1.3498         estimate D2E/DX2                !
 ! R61   R(32,34)                1.2207         estimate D2E/DX2                !
 ! R62   R(33,58)                0.9809         estimate D2E/DX2                !
 ! A1    A(2,1,6)              117.4441         estimate D2E/DX2                !
 ! A2    A(2,1,15)             121.2632         estimate D2E/DX2                !
 ! A3    A(6,1,15)             121.2906         estimate D2E/DX2                !
 ! A4    A(1,2,3)              121.5751         estimate D2E/DX2                !
 ! A5    A(1,2,17)             123.0132         estimate D2E/DX2                !
 ! A6    A(3,2,17)             115.4116         estimate D2E/DX2                !
 ! A7    A(2,3,4)              121.1622         estimate D2E/DX2                !
 ! A8    A(2,3,35)             117.3147         estimate D2E/DX2                !
 ! A9    A(4,3,35)             121.5226         estimate D2E/DX2                !
 ! A10   A(3,4,5)              117.9732         estimate D2E/DX2                !
 ! A11   A(3,4,7)              122.2245         estimate D2E/DX2                !
 ! A12   A(5,4,7)              119.8003         estimate D2E/DX2                !
 ! A13   A(4,5,6)              120.5703         estimate D2E/DX2                !
 ! A14   A(4,5,10)             119.5989         estimate D2E/DX2                !
 ! A15   A(6,5,10)             119.8289         estimate D2E/DX2                !
 ! A16   A(1,6,5)              121.2686         estimate D2E/DX2                !
 ! A17   A(1,6,16)             116.8715         estimate D2E/DX2                !
 ! A18   A(5,6,16)             121.8597         estimate D2E/DX2                !
 ! A19   A(4,7,8)              117.7856         estimate D2E/DX2                !
 ! A20   A(4,7,11)             120.5751         estimate D2E/DX2                !
 ! A21   A(8,7,11)             121.6392         estimate D2E/DX2                !
 ! A22   A(7,8,9)              123.0872         estimate D2E/DX2                !
 ! A23   A(7,8,14)             123.655          estimate D2E/DX2                !
 ! A24   A(9,8,14)             113.2514         estimate D2E/DX2                !
 ! A25   A(8,9,10)             122.1623         estimate D2E/DX2                !
 ! A26   A(5,10,9)             117.5152         estimate D2E/DX2                !
 ! A27   A(5,10,18)            120.4189         estimate D2E/DX2                !
 ! A28   A(9,10,18)            122.0635         estimate D2E/DX2                !
 ! A29   A(7,11,12)            114.7343         estimate D2E/DX2                !
 ! A30   A(7,11,36)            107.8754         estimate D2E/DX2                !
 ! A31   A(7,11,37)            108.8157         estimate D2E/DX2                !
 ! A32   A(12,11,36)           110.0686         estimate D2E/DX2                !
 ! A33   A(12,11,37)           107.5629         estimate D2E/DX2                !
 ! A34   A(36,11,37)           107.5601         estimate D2E/DX2                !
 ! A35   A(11,12,13)           108.0544         estimate D2E/DX2                !
 ! A36   A(11,12,19)           105.6629         estimate D2E/DX2                !
 ! A37   A(11,12,32)           105.854          estimate D2E/DX2                !
 ! A38   A(13,12,19)           112.8046         estimate D2E/DX2                !
 ! A39   A(13,12,32)           109.8234         estimate D2E/DX2                !
 ! A40   A(19,12,32)           114.1423         estimate D2E/DX2                !
 ! A41   A(12,13,14)           111.9285         estimate D2E/DX2                !
 ! A42   A(12,13,38)           109.5542         estimate D2E/DX2                !
 ! A43   A(12,13,39)           111.5205         estimate D2E/DX2                !
 ! A44   A(14,13,38)           108.9022         estimate D2E/DX2                !
 ! A45   A(14,13,39)           109.2308         estimate D2E/DX2                !
 ! A46   A(38,13,39)           105.4742         estimate D2E/DX2                !
 ! A47   A(8,14,13)            112.7734         estimate D2E/DX2                !
 ! A48   A(8,14,40)            108.7961         estimate D2E/DX2                !
 ! A49   A(8,14,41)            109.5594         estimate D2E/DX2                !
 ! A50   A(13,14,40)           110.2948         estimate D2E/DX2                !
 ! A51   A(13,14,41)           108.5069         estimate D2E/DX2                !
 ! A52   A(40,14,41)           106.7303         estimate D2E/DX2                !
 ! A53   A(1,15,42)            113.1776         estimate D2E/DX2                !
 ! A54   A(1,15,43)            109.946          estimate D2E/DX2                !
 ! A55   A(1,15,44)            110.0385         estimate D2E/DX2                !
 ! A56   A(42,15,43)           107.3491         estimate D2E/DX2                !
 ! A57   A(42,15,44)           106.9024         estimate D2E/DX2                !
 ! A58   A(43,15,44)           109.3051         estimate D2E/DX2                !
 ! A59   A(6,16,45)            109.415          estimate D2E/DX2                !
 ! A60   A(2,17,46)            109.8491         estimate D2E/DX2                !
 ! A61   A(12,19,20)           119.3709         estimate D2E/DX2                !
 ! A62   A(19,20,21)           105.8555         estimate D2E/DX2                !
 ! A63   A(19,20,25)           113.0841         estimate D2E/DX2                !
 ! A64   A(19,20,47)           109.655          estimate D2E/DX2                !
 ! A65   A(21,20,25)           109.4873         estimate D2E/DX2                !
 ! A66   A(21,20,47)           107.877          estimate D2E/DX2                !
 ! A67   A(25,20,47)           110.6501         estimate D2E/DX2                !
 ! A68   A(20,21,22)           110.963          estimate D2E/DX2                !
 ! A69   A(20,21,26)           109.9757         estimate D2E/DX2                !
 ! A70   A(20,21,48)           110.4952         estimate D2E/DX2                !
 ! A71   A(22,21,26)           108.9506         estimate D2E/DX2                !
 ! A72   A(22,21,48)           110.6742         estimate D2E/DX2                !
 ! A73   A(26,21,48)           105.636          estimate D2E/DX2                !
 ! A74   A(21,22,23)           112.8323         estimate D2E/DX2                !
 ! A75   A(21,22,27)           109.0213         estimate D2E/DX2                !
 ! A76   A(21,22,49)           110.6135         estimate D2E/DX2                !
 ! A77   A(23,22,27)           108.0874         estimate D2E/DX2                !
 ! A78   A(23,22,49)           109.2641         estimate D2E/DX2                !
 ! A79   A(27,22,49)           106.8116         estimate D2E/DX2                !
 ! A80   A(22,23,24)           123.0316         estimate D2E/DX2                !
 ! A81   A(22,23,50)           116.2187         estimate D2E/DX2                !
 ! A82   A(24,23,50)           120.7491         estimate D2E/DX2                !
 ! A83   A(23,24,25)           122.6473         estimate D2E/DX2                !
 ! A84   A(23,24,28)           117.9854         estimate D2E/DX2                !
 ! A85   A(25,24,28)           119.354          estimate D2E/DX2                !
 ! A86   A(20,25,24)           114.1181         estimate D2E/DX2                !
 ! A87   A(20,25,51)           108.1063         estimate D2E/DX2                !
 ! A88   A(20,25,52)           109.5331         estimate D2E/DX2                !
 ! A89   A(24,25,51)           108.9331         estimate D2E/DX2                !
 ! A90   A(24,25,52)           108.9398         estimate D2E/DX2                !
 ! A91   A(51,25,52)           106.9677         estimate D2E/DX2                !
 ! A92   A(21,26,53)           105.0216         estimate D2E/DX2                !
 ! A93   A(22,27,54)           105.2342         estimate D2E/DX2                !
 ! A94   A(24,28,29)           109.7823         estimate D2E/DX2                !
 ! A95   A(24,28,30)           124.5254         estimate D2E/DX2                !
 ! A96   A(29,28,30)           125.6923         estimate D2E/DX2                !
 ! A97   A(28,29,31)           113.756          estimate D2E/DX2                !
 ! A98   A(29,31,55)           108.0117         estimate D2E/DX2                !
 ! A99   A(29,31,56)           110.5187         estimate D2E/DX2                !
 ! A100  A(29,31,57)           110.5384         estimate D2E/DX2                !
 ! A101  A(55,31,56)           108.4273         estimate D2E/DX2                !
 ! A102  A(55,31,57)           108.4296         estimate D2E/DX2                !
 ! A103  A(56,31,57)           110.8213         estimate D2E/DX2                !
 ! A104  A(12,32,33)           113.382          estimate D2E/DX2                !
 ! A105  A(12,32,34)           126.7053         estimate D2E/DX2                !
 ! A106  A(33,32,34)           119.9006         estimate D2E/DX2                !
 ! A107  A(32,33,58)           104.8378         estimate D2E/DX2                !
 ! D1    D(6,1,2,3)              0.6037         estimate D2E/DX2                !
 ! D2    D(6,1,2,17)          -179.273          estimate D2E/DX2                !
 ! D3    D(15,1,2,3)          -179.9239         estimate D2E/DX2                !
 ! D4    D(15,1,2,17)            0.1994         estimate D2E/DX2                !
 ! D5    D(2,1,6,5)             -0.4945         estimate D2E/DX2                !
 ! D6    D(2,1,6,16)           179.3457         estimate D2E/DX2                !
 ! D7    D(15,1,6,5)          -179.9667         estimate D2E/DX2                !
 ! D8    D(15,1,6,16)           -0.1265         estimate D2E/DX2                !
 ! D9    D(2,1,15,42)          177.2816         estimate D2E/DX2                !
 ! D10   D(2,1,15,43)          -62.689          estimate D2E/DX2                !
 ! D11   D(2,1,15,44)           57.7566         estimate D2E/DX2                !
 ! D12   D(6,1,15,42)           -3.2664         estimate D2E/DX2                !
 ! D13   D(6,1,15,43)          116.7631         estimate D2E/DX2                !
 ! D14   D(6,1,15,44)         -122.7914         estimate D2E/DX2                !
 ! D15   D(1,2,3,4)             -0.0223         estimate D2E/DX2                !
 ! D16   D(1,2,3,35)          -179.7737         estimate D2E/DX2                !
 ! D17   D(17,2,3,4)           179.8632         estimate D2E/DX2                !
 ! D18   D(17,2,3,35)            0.1118         estimate D2E/DX2                !
 ! D19   D(1,2,17,46)            0.4642         estimate D2E/DX2                !
 ! D20   D(3,2,17,46)         -179.4195         estimate D2E/DX2                !
 ! D21   D(2,3,4,5)             -0.671          estimate D2E/DX2                !
 ! D22   D(2,3,4,7)            179.8421         estimate D2E/DX2                !
 ! D23   D(35,3,4,5)           179.0698         estimate D2E/DX2                !
 ! D24   D(35,3,4,7)            -0.4171         estimate D2E/DX2                !
 ! D25   D(3,4,5,6)              0.773          estimate D2E/DX2                !
 ! D26   D(3,4,5,10)          -178.7388         estimate D2E/DX2                !
 ! D27   D(7,4,5,6)           -179.7272         estimate D2E/DX2                !
 ! D28   D(7,4,5,10)             0.761          estimate D2E/DX2                !
 ! D29   D(3,4,7,8)            177.3135         estimate D2E/DX2                !
 ! D30   D(3,4,7,11)            -2.8165         estimate D2E/DX2                !
 ! D31   D(5,4,7,8)             -2.1643         estimate D2E/DX2                !
 ! D32   D(5,4,7,11)           177.7057         estimate D2E/DX2                !
 ! D33   D(4,5,6,1)             -0.1954         estimate D2E/DX2                !
 ! D34   D(4,5,6,16)           179.9724         estimate D2E/DX2                !
 ! D35   D(10,5,6,1)           179.3153         estimate D2E/DX2                !
 ! D36   D(10,5,6,16)           -0.5169         estimate D2E/DX2                !
 ! D37   D(4,5,10,9)             1.2322         estimate D2E/DX2                !
 ! D38   D(4,5,10,18)         -179.3215         estimate D2E/DX2                !
 ! D39   D(6,5,10,9)          -178.2833         estimate D2E/DX2                !
 ! D40   D(6,5,10,18)            1.163          estimate D2E/DX2                !
 ! D41   D(1,6,16,45)          179.7852         estimate D2E/DX2                !
 ! D42   D(5,6,16,45)           -0.3756         estimate D2E/DX2                !
 ! D43   D(4,7,8,9)              1.6084         estimate D2E/DX2                !
 ! D44   D(4,7,8,14)          -177.4128         estimate D2E/DX2                !
 ! D45   D(11,7,8,9)          -178.2601         estimate D2E/DX2                !
 ! D46   D(11,7,8,14)            2.7186         estimate D2E/DX2                !
 ! D47   D(4,7,11,12)         -166.776          estimate D2E/DX2                !
 ! D48   D(4,7,11,36)           70.1622         estimate D2E/DX2                !
 ! D49   D(4,7,11,37)          -46.2482         estimate D2E/DX2                !
 ! D50   D(8,7,11,12)           13.0889         estimate D2E/DX2                !
 ! D51   D(8,7,11,36)         -109.9729         estimate D2E/DX2                !
 ! D52   D(8,7,11,37)          133.6167         estimate D2E/DX2                !
 ! D53   D(7,8,9,10)             0.4567         estimate D2E/DX2                !
 ! D54   D(14,8,9,10)          179.57           estimate D2E/DX2                !
 ! D55   D(7,8,14,13)           13.8231         estimate D2E/DX2                !
 ! D56   D(7,8,14,40)         -108.8777         estimate D2E/DX2                !
 ! D57   D(7,8,14,41)          134.7867         estimate D2E/DX2                !
 ! D58   D(9,8,14,13)         -165.2844         estimate D2E/DX2                !
 ! D59   D(9,8,14,40)           72.0148         estimate D2E/DX2                !
 ! D60   D(9,8,14,41)          -44.3208         estimate D2E/DX2                !
 ! D61   D(8,9,10,5)            -1.8878         estimate D2E/DX2                !
 ! D62   D(8,9,10,18)          178.6756         estimate D2E/DX2                !
 ! D63   D(7,11,12,13)         -43.095          estimate D2E/DX2                !
 ! D64   D(7,11,12,19)          77.8879         estimate D2E/DX2                !
 ! D65   D(7,11,12,32)        -160.6991         estimate D2E/DX2                !
 ! D66   D(36,11,12,13)         78.7819         estimate D2E/DX2                !
 ! D67   D(36,11,12,19)       -160.2353         estimate D2E/DX2                !
 ! D68   D(36,11,12,32)        -38.8223         estimate D2E/DX2                !
 ! D69   D(37,11,12,13)       -164.3113         estimate D2E/DX2                !
 ! D70   D(37,11,12,19)        -43.3284         estimate D2E/DX2                !
 ! D71   D(37,11,12,32)         78.0845         estimate D2E/DX2                !
 ! D72   D(11,12,13,14)         59.9817         estimate D2E/DX2                !
 ! D73   D(11,12,13,38)        -60.921          estimate D2E/DX2                !
 ! D74   D(11,12,13,39)       -177.3065         estimate D2E/DX2                !
 ! D75   D(19,12,13,14)        -56.4476         estimate D2E/DX2                !
 ! D76   D(19,12,13,38)       -177.3503         estimate D2E/DX2                !
 ! D77   D(19,12,13,39)         66.2642         estimate D2E/DX2                !
 ! D78   D(32,12,13,14)        175.002          estimate D2E/DX2                !
 ! D79   D(32,12,13,38)         54.0994         estimate D2E/DX2                !
 ! D80   D(32,12,13,39)        -62.2861         estimate D2E/DX2                !
 ! D81   D(11,12,19,20)       -175.4645         estimate D2E/DX2                !
 ! D82   D(13,12,19,20)        -57.6211         estimate D2E/DX2                !
 ! D83   D(32,12,19,20)         68.649          estimate D2E/DX2                !
 ! D84   D(11,12,32,33)        -63.3086         estimate D2E/DX2                !
 ! D85   D(11,12,32,34)        117.9658         estimate D2E/DX2                !
 ! D86   D(13,12,32,33)       -179.7218         estimate D2E/DX2                !
 ! D87   D(13,12,32,34)          1.5525         estimate D2E/DX2                !
 ! D88   D(19,12,32,33)         52.4666         estimate D2E/DX2                !
 ! D89   D(19,12,32,34)       -126.2591         estimate D2E/DX2                !
 ! D90   D(12,13,14,8)         -45.9333         estimate D2E/DX2                !
 ! D91   D(12,13,14,40)         75.9251         estimate D2E/DX2                !
 ! D92   D(12,13,14,41)       -167.495          estimate D2E/DX2                !
 ! D93   D(38,13,14,8)          75.3464         estimate D2E/DX2                !
 ! D94   D(38,13,14,40)       -162.7951         estimate D2E/DX2                !
 ! D95   D(38,13,14,41)        -46.2152         estimate D2E/DX2                !
 ! D96   D(39,13,14,8)        -169.9371         estimate D2E/DX2                !
 ! D97   D(39,13,14,40)        -48.0786         estimate D2E/DX2                !
 ! D98   D(39,13,14,41)         68.5012         estimate D2E/DX2                !
 ! D99   D(12,19,20,21)        164.2047         estimate D2E/DX2                !
 ! D100  D(12,19,20,25)        -75.9258         estimate D2E/DX2                !
 ! D101  D(12,19,20,47)         48.0816         estimate D2E/DX2                !
 ! D102  D(19,20,21,22)       -178.089          estimate D2E/DX2                !
 ! D103  D(19,20,21,26)        -57.4722         estimate D2E/DX2                !
 ! D104  D(19,20,21,48)         58.7609         estimate D2E/DX2                !
 ! D105  D(25,20,21,22)         59.7119         estimate D2E/DX2                !
 ! D106  D(25,20,21,26)       -179.6712         estimate D2E/DX2                !
 ! D107  D(25,20,21,48)        -63.4381         estimate D2E/DX2                !
 ! D108  D(47,20,21,22)        -60.766          estimate D2E/DX2                !
 ! D109  D(47,20,21,26)         59.8508         estimate D2E/DX2                !
 ! D110  D(47,20,21,48)        176.0839         estimate D2E/DX2                !
 ! D111  D(19,20,25,24)       -160.2428         estimate D2E/DX2                !
 ! D112  D(19,20,25,51)         78.3979         estimate D2E/DX2                !
 ! D113  D(19,20,25,52)        -37.82           estimate D2E/DX2                !
 ! D114  D(21,20,25,24)        -42.4769         estimate D2E/DX2                !
 ! D115  D(21,20,25,51)       -163.8362         estimate D2E/DX2                !
 ! D116  D(21,20,25,52)         79.946          estimate D2E/DX2                !
 ! D117  D(47,20,25,24)         76.2967         estimate D2E/DX2                !
 ! D118  D(47,20,25,51)        -45.0626         estimate D2E/DX2                !
 ! D119  D(47,20,25,52)       -161.2805         estimate D2E/DX2                !
 ! D120  D(20,21,22,23)        -46.1265         estimate D2E/DX2                !
 ! D121  D(20,21,22,27)       -166.2234         estimate D2E/DX2                !
 ! D122  D(20,21,22,49)         76.6133         estimate D2E/DX2                !
 ! D123  D(26,21,22,23)       -167.3482         estimate D2E/DX2                !
 ! D124  D(26,21,22,27)         72.555          estimate D2E/DX2                !
 ! D125  D(26,21,22,49)        -44.6084         estimate D2E/DX2                !
 ! D126  D(48,21,22,23)         76.9204         estimate D2E/DX2                !
 ! D127  D(48,21,22,27)        -43.1765         estimate D2E/DX2                !
 ! D128  D(48,21,22,49)       -160.3398         estimate D2E/DX2                !
 ! D129  D(20,21,26,53)         52.4412         estimate D2E/DX2                !
 ! D130  D(22,21,26,53)        174.2637         estimate D2E/DX2                !
 ! D131  D(48,21,26,53)        -66.8069         estimate D2E/DX2                !
 ! D132  D(21,22,23,24)         15.3353         estimate D2E/DX2                !
 ! D133  D(21,22,23,50)       -164.3815         estimate D2E/DX2                !
 ! D134  D(27,22,23,24)        135.9672         estimate D2E/DX2                !
 ! D135  D(27,22,23,50)        -43.7496         estimate D2E/DX2                !
 ! D136  D(49,22,23,24)       -108.155          estimate D2E/DX2                !
 ! D137  D(49,22,23,50)         72.1283         estimate D2E/DX2                !
 ! D138  D(21,22,27,54)        -51.94           estimate D2E/DX2                !
 ! D139  D(23,22,27,54)       -174.9223         estimate D2E/DX2                !
 ! D140  D(49,22,27,54)         67.6099         estimate D2E/DX2                !
 ! D141  D(22,23,24,25)          1.9348         estimate D2E/DX2                !
 ! D142  D(22,23,24,28)       -179.4007         estimate D2E/DX2                !
 ! D143  D(50,23,24,25)       -178.3609         estimate D2E/DX2                !
 ! D144  D(50,23,24,28)          0.3037         estimate D2E/DX2                !
 ! D145  D(23,24,25,20)         12.4573         estimate D2E/DX2                !
 ! D146  D(23,24,25,51)        133.358          estimate D2E/DX2                !
 ! D147  D(23,24,25,52)       -110.2895         estimate D2E/DX2                !
 ! D148  D(28,24,25,20)       -166.1897         estimate D2E/DX2                !
 ! D149  D(28,24,25,51)        -45.289          estimate D2E/DX2                !
 ! D150  D(28,24,25,52)         71.0635         estimate D2E/DX2                !
 ! D151  D(23,24,28,29)        167.9604         estimate D2E/DX2                !
 ! D152  D(23,24,28,30)        -12.1084         estimate D2E/DX2                !
 ! D153  D(25,24,28,29)        -13.3297         estimate D2E/DX2                !
 ! D154  D(25,24,28,30)        166.6015         estimate D2E/DX2                !
 ! D155  D(24,28,29,31)       -179.776          estimate D2E/DX2                !
 ! D156  D(30,28,29,31)          0.2938         estimate D2E/DX2                !
 ! D157  D(28,29,31,55)        179.8389         estimate D2E/DX2                !
 ! D158  D(28,29,31,56)        -61.6978         estimate D2E/DX2                !
 ! D159  D(28,29,31,57)         61.3616         estimate D2E/DX2                !
 ! D160  D(12,32,33,58)       -178.5221         estimate D2E/DX2                !
 ! D161  D(34,32,33,58)          0.2993         estimate D2E/DX2                !
 --------------------------------------------------------------------------------
 Trust Radius=3.00D-01 FncErr=1.00D-07 GrdErr=1.00D-06
 Number of steps in this run=    340 maximum allowed number of steps=    348.
 GradGradGradGradGradGradGradGradGradGradGradGradGradGradGradGradGradGrad

 Stoichiometry    C23H24O11
 Framework group  C1[X(C23H24O11)]
 Deg. of freedom   168
 Full point group                 C1      NOp   1
 Largest Abelian subgroup         C1      NOp   1
 Largest concise Abelian subgroup C1      NOp   1
                         Standard orientation:                         
 ---------------------------------------------------------------------
 Center     Atomic      Atomic             Coordinates (Angstroms)
 Number     Number       Type             X           Y           Z
 ---------------------------------------------------------------------
      1          6           0        5.832141   -0.716840   -1.120950
      2          6           0        4.851810   -1.700762   -1.278499
      3          6           0        3.590642   -1.577759   -0.689994
      4          6           0        3.258104   -0.458632    0.084834
      5          6           0        4.234623    0.529752    0.264774
      6          6           0        5.507330    0.400145   -0.335047
      7          6           0        1.934409   -0.303278    0.713285
      8          6           0        1.729744    0.778010    1.482378
      9          8           0        2.704123    1.773247    1.683562
     10          6           0        3.931351    1.713670    1.099744
     11          6           0        0.847382   -1.336549    0.487916
     12          6           0       -0.576982   -0.892437    0.935788
     13          6           0       -0.450891   -0.190354    2.301106
     14          6           0        0.453367    1.038469    2.229250
     15          6           0        7.186877   -0.855650   -1.759010
     16          8           0        6.484937    1.354031   -0.176549
     17          8           0        5.050807   -2.840808   -2.006763
     18          8           0        4.771927    2.595226    1.257485
     19          8           0       -1.053936   -0.015902   -0.099799
     20          6           0       -2.319707    0.648404    0.065322
     21          6           0       -2.340420    1.779637   -0.978814
     22          6           0       -3.634043    2.602347   -0.872496
     23          6           0       -4.855522    1.750087   -0.763855
     24          6           0       -4.811039    0.439179   -0.461472
     25          6           0       -3.523618   -0.282220   -0.162228
     26          8           0       -1.214415    2.652086   -0.780384
     27          8           0       -3.764098    3.415882   -2.035601
     28          6           0       -6.098150   -0.306876   -0.395834
     29          8           0       -5.853732   -1.641162   -0.346019
     30          8           0       -7.201443    0.216026   -0.387410
     31          6           0       -7.035701   -2.440788   -0.286028
     32          6           0       -1.394056   -2.190433    1.088955
     33          8           0       -1.544006   -2.868727   -0.068352
     34          8           0       -1.904965   -2.614386    2.113374
     35          1           0        2.882423   -2.385856   -0.854573
     36          1           0        1.139717   -2.254362    1.016417
     37          1           0        0.799382   -1.572258   -0.583793
     38          1           0       -0.038942   -0.893006    3.039552
     39          1           0       -1.430650    0.104913    2.693319
     40          1           0       -0.073398    1.870360    1.748678
     41          1           0        0.685367    1.360224    3.251700
     42          1           0        7.833240    0.010105   -1.589519
     43          1           0        7.702585   -1.732486   -1.353734
     44          1           0        7.081334   -0.966787   -2.843421
     45          1           0        6.141401    2.083933    0.386362
     46          1           0        5.950878   -2.847257   -2.369359
     47          1           0       -2.368270    1.106773    1.058488
     48          1           0       -2.223172    1.370684   -1.991087
     49          1           0       -3.589677    3.282071   -0.013445
     50          1           0       -5.806808    2.246808   -0.949122
     51          1           0       -3.658379   -0.891037    0.738550
     52          1           0       -3.302841   -0.972994   -0.985479
     53          1           0       -0.435422    2.061190   -0.765874
     54          1           0       -2.914860    3.891654   -2.112201
     55          1           0       -6.732225   -3.490810   -0.252274
     56          1           0       -7.605375   -2.215951    0.621140
     57          1           0       -7.649439   -2.286513   -1.179101
     58          1           0       -2.094371   -3.646233    0.165678
 ---------------------------------------------------------------------
 Rotational constants (GHZ):      0.2354824      0.0561425      0.0514611
 Standard basis: 6-31G(d) (6D, 7F)
 There are   558 symmetry adapted basis functions of A   symmetry.
 Integral buffers will be    131072 words long.
 Raffenetti 2 integral format.
 Two-electron integral symmetry is turned on.
   558 basis functions,  1048 primitive gaussians,   558 cartesian basis functions
   125 alpha electrons      125 beta electrons
       nuclear repulsion energy      3669.0364759428 Hartrees.
 NAtoms=   58 NActive=   58 NUniq=   58 SFac= 1.00D+00 NAtFMM=   50 NAOKFM=T Big=T
 One-electron integrals computed using PRISM.
 NBasis=   558 RedAO= T  NBF=   558
 NBsUse=   558 1.00D-06 NBFU=   558
 Harris functional with IExCor=  402 diagonalized for initial guess.
 ExpMin= 1.61D-01 ExpMax= 5.48D+03 ExpMxC= 8.25D+02 IAcc=1 IRadAn=         1 AccDes= 0.00D+00
 HarFok:  IExCor=  402 AccDes= 0.00D+00 IRadAn=         1 IDoV= 1
 ScaDFX=  1.000000  1.000000  1.000000  1.000000
 FoFCou: FMM=F IPFlag=           0 FMFlag=      100000 FMFlg1=        2001
         NFxFlg=           0 DoJE=T BraDBF=F KetDBF=T FulRan=T
         Omega=  0.000000  0.000000  1.000000  0.000000  0.000000 ICntrl=     500 IOpCl=  0
         NMat0=    1 NMatS0=    1 NMatT0=    0 NMatD0=    1 NMtDS0=    0 NMtDT0=    0
         I1Cent=           4 NGrid=           0.
 Petite list used in FoFCou.
 Initial guess orbital symmetries:
       Occupied  (A) (A) (A) (A) (A) (A) (A) (A) (A) (A) (A) (A)
                 (A) (A) (A) (A) (A) (A) (A) (A) (A) (A) (A) (A)
                 (A) (A) (A) (A) (A) (A) (A) (A) (A) (A) (A) (A)
                 (A) (A) (A) (A) (A) (A) (A) (A) (A) (A) (A) (A)
                 (A) (A) (A) (A) (A) (A) (A) (A) (A) (A) (A) (A)
                 (A) (A) (A) (A) (A) (A) (A) (A) (A) (A) (A) (A)
                 (A) (A) (A) (A) (A) (A) (A) (A) (A) (A) (A) (A)
                 (A) (A) (A) (A) (A) (A) (A) (A) (A) (A) (A) (A)
                 (A) (A) (A) (A) (A) (A) (A) (A) (A) (A) (A) (A)
                 (A) (A) (A) (A) (A) (A) (A) (A) (A) (A) (A) (A)
                 (A) (A) (A) (A) (A)
       Virtual   (A) (A) (A) (A) (A) (A) (A) (A) (A) (A) (A) (A)
                 (A) (A) (A) (A) (A) (A) (A) (A) (A) (A) (A) (A)
                 (A) (A) (A) (A) (A) (A) (A) (A) (A) (A) (A) (A)
                 (A) (A) (A) (A) (A) (A) (A) (A) (A) (A) (A) (A)
                 (A) (A) (A) (A) (A) (A) (A) (A) (A) (A) (A) (A)
                 (A) (A) (A) (A) (A) (A) (A) (A) (A) (A) (A) (A)
                 (A) (A) (A) (A) (A) (A) (A) (A) (A) (A) (A) (A)
                 (A) (A) (A) (A) (A) (A) (A) (A) (A) (A) (A) (A)
                 (A) (A) (A) (A) (A) (A) (A) (A) (A) (A) (A) (A)
                 (A) (A) (A) (A) (A) (A) (A) (A) (A) (A) (A) (A)
                 (A) (A) (A) (A) (A) (A) (A) (A) (A) (A) (A) (A)
                 (A) (A) (A) (A) (A) (A) (A) (A) (A) (A) (A) (A)
                 (A) (A) (A) (A) (A) (A) (A) (A) (A) (A) (A) (A)
                 (A) (A) (A) (A) (A) (A) (A) (A) (A) (A) (A) (A)
                 (A) (A) (A) (A) (A) (A) (A) (A) (A) (A) (A) (A)
                 (A) (A) (A) (A) (A) (A) (A) (A) (A) (A) (A) (A)
                 (A) (A) (A) (A) (A) (A) (A) (A) (A) (A) (A) (A)
                 (A) (A) (A) (A) (A) (A) (A) (A) (A) (A) (A) (A)
                 (A) (A) (A) (A) (A) (A) (A) (A) (A) (A) (A) (A)
                 (A) (A) (A) (A) (A) (A) (A) (A) (A) (A) (A) (A)
                 (A) (A) (A) (A) (A) (A) (A) (A) (A) (A) (A) (A)
                 (A) (A) (A) (A) (A) (A) (A) (A) (A) (A) (A) (A)
                 (A) (A) (A) (A) (A) (A) (A) (A) (A) (A) (A) (A)
                 (A) (A) (A) (A) (A) (A) (A) (A) (A) (A) (A) (A)
                 (A) (A) (A) (A) (A) (A) (A) (A) (A) (A) (A) (A)
                 (A) (A) (A) (A) (A) (A) (A) (A) (A) (A) (A) (A)
                 (A) (A) (A) (A) (A) (A) (A) (A) (A) (A) (A) (A)
                 (A) (A) (A) (A) (A) (A) (A) (A) (A) (A) (A) (A)
                 (A) (A) (A) (A) (A) (A) (A) (A) (A) (A) (A) (A)
                 (A) (A) (A) (A) (A) (A) (A) (A) (A) (A) (A) (A)
                 (A) (A) (A) (A) (A) (A) (A) (A) (A) (A) (A) (A)
                 (A) (A) (A) (A) (A) (A) (A) (A) (A) (A) (A) (A)
                 (A) (A) (A) (A) (A) (A) (A) (A) (A) (A) (A) (A)
                 (A) (A) (A) (A) (A) (A) (A) (A) (A) (A) (A) (A)
                 (A) (A) (A) (A) (A) (A) (A) (A) (A) (A) (A) (A)
                 (A) (A) (A) (A) (A) (A) (A) (A) (A) (A) (A) (A)
                 (A)
 The electronic state of the initial guess is 1-A.
 Requested convergence on RMS density matrix=1.00D-08 within 128 cycles.
 Requested convergence on MAX density matrix=1.00D-06.
 Requested convergence on             energy=1.00D-06.
 No special actions if energy rises.
 Integral accuracy reduced to 1.0D-05 until final iterations.
 Initial convergence to 1.0D-05 achieved.  Increase integral accuracy.
 SCF Done:  E(RB3LYP) =  -1718.35741744     A.U. after   15 cycles
             Convg  =    0.3867D-08             -V/T =  2.0091

 **********************************************************************

            Population analysis using the SCF density.

 **********************************************************************

 Orbital symmetries:
       Occupied  (A) (A) (A) (A) (A) (A) (A) (A) (A) (A) (A) (A)
                 (A) (A) (A) (A) (A) (A) (A) (A) (A) (A) (A) (A)
                 (A) (A) (A) (A) (A) (A) (A) (A) (A) (A) (A) (A)
                 (A) (A) (A) (A) (A) (A) (A) (A) (A) (A) (A) (A)
                 (A) (A) (A) (A) (A) (A) (A) (A) (A) (A) (A) (A)
                 (A) (A) (A) (A) (A) (A) (A) (A) (A) (A) (A) (A)
                 (A) (A) (A) (A) (A) (A) (A) (A) (A) (A) (A) (A)
                 (A) (A) (A) (A) (A) (A) (A) (A) (A) (A) (A) (A)
                 (A) (A) (A) (A) (A) (A) (A) (A) (A) (A) (A) (A)
                 (A) (A) (A) (A) (A) (A) (A) (A) (A) (A) (A) (A)
                 (A) (A) (A) (A) (A)
       Virtual   (A) (A) (A) (A) (A) (A) (A) (A) (A) (A) (A) (A)
                 (A) (A) (A) (A) (A) (A) (A) (A) (A) (A) (A) (A)
                 (A) (A) (A) (A) (A) (A) (A) (A) (A) (A) (A) (A)
                 (A) (A) (A) (A) (A) (A) (A) (A) (A) (A) (A) (A)
                 (A) (A) (A) (A) (A) (A) (A) (A) (A) (A) (A) (A)
                 (A) (A) (A) (A) (A) (A) (A) (A) (A) (A) (A) (A)
                 (A) (A) (A) (A) (A) (A) (A) (A) (A) (A) (A) (A)
                 (A) (A) (A) (A) (A) (A) (A) (A) (A) (A) (A) (A)
                 (A) (A) (A) (A) (A) (A) (A) (A) (A) (A) (A) (A)
                 (A) (A) (A) (A) (A) (A) (A) (A) (A) (A) (A) (A)
                 (A) (A) (A) (A) (A) (A) (A) (A) (A) (A) (A) (A)
                 (A) (A) (A) (A) (A) (A) (A) (A) (A) (A) (A) (A)
                 (A) (A) (A) (A) (A) (A) (A) (A) (A) (A) (A) (A)
                 (A) (A) (A) (A) (A) (A) (A) (A) (A) (A) (A) (A)
                 (A) (A) (A) (A) (A) (A) (A) (A) (A) (A) (A) (A)
                 (A) (A) (A) (A) (A) (A) (A) (A) (A) (A) (A) (A)
                 (A) (A) (A) (A) (A) (A) (A) (A) (A) (A) (A) (A)
                 (A) (A) (A) (A) (A) (A) (A) (A) (A) (A) (A) (A)
                 (A) (A) (A) (A) (A) (A) (A) (A) (A) (A) (A) (A)
                 (A) (A) (A) (A) (A) (A) (A) (A) (A) (A) (A) (A)
                 (A) (A) (A) (A) (A) (A) (A) (A) (A) (A) (A) (A)
                 (A) (A) (A) (A) (A) (A) (A) (A) (A) (A) (A) (A)
                 (A) (A) (A) (A) (A) (A) (A) (A) (A) (A) (A) (A)
                 (A) (A) (A) (A) (A) (A) (A) (A) (A) (A) (A) (A)
                 (A) (A) (A) (A) (A) (A) (A) (A) (A) (A) (A) (A)
                 (A) (A) (A) (A) (A) (A) (A) (A) (A) (A) (A) (A)
                 (A) (A) (A) (A) (A) (A) (A) (A) (A) (A) (A) (A)
                 (A) (A) (A) (A) (A) (A) (A) (A) (A) (A) (A) (A)
                 (A) (A) (A) (A) (A) (A) (A) (A) (A) (A) (A) (A)
                 (A) (A) (A) (A) (A) (A) (A) (A) (A) (A) (A) (A)
                 (A) (A) (A) (A) (A) (A) (A) (A) (A) (A) (A) (A)
                 (A) (A) (A) (A) (A) (A) (A) (A) (A) (A) (A) (A)
                 (A) (A) (A) (A) (A) (A) (A) (A) (A) (A) (A) (A)
                 (A) (A) (A) (A) (A) (A) (A) (A) (A) (A) (A) (A)
                 (A) (A) (A) (A) (A) (A) (A) (A) (A) (A) (A) (A)
                 (A) (A) (A) (A) (A) (A) (A) (A) (A) (A) (A) (A)
                 (A)
 The electronic state is 1-A.
 Alpha  occ. eigenvalues --  -19.22619 -19.21753 -19.20416 -19.19579 -19.18667
 Alpha  occ. eigenvalues --  -19.16637 -19.16275 -19.15735 -19.14651 -19.14501
 Alpha  occ. eigenvalues --  -19.14035 -10.34220 -10.33310 -10.32141 -10.28954
 Alpha  occ. eigenvalues --  -10.27468 -10.26845 -10.26738 -10.25980 -10.25079
 Alpha  occ. eigenvalues --  -10.24815 -10.24686 -10.22384 -10.22243 -10.21962
 Alpha  occ. eigenvalues --  -10.21583 -10.21404 -10.21242 -10.20880 -10.20698
 Alpha  occ. eigenvalues --  -10.20464 -10.20415 -10.19745 -10.19226  -1.12936
 Alpha  occ. eigenvalues --   -1.12179  -1.10798  -1.07540  -1.06481  -1.05419
 Alpha  occ. eigenvalues --   -1.03363  -1.03105  -1.02724  -1.01851  -1.01340
 Alpha  occ. eigenvalues --   -0.88100  -0.86263  -0.84760  -0.80962  -0.79527
 Alpha  occ. eigenvalues --   -0.77149  -0.76440  -0.75978  -0.75028  -0.72309
 Alpha  occ. eigenvalues --   -0.70961  -0.69229  -0.66366  -0.65574  -0.64722
 Alpha  occ. eigenvalues --   -0.64105  -0.63284  -0.61447  -0.59333  -0.58002
 Alpha  occ. eigenvalues --   -0.56934  -0.55737  -0.55048  -0.54222  -0.53185
 Alpha  occ. eigenvalues --   -0.52180  -0.51821  -0.50873  -0.50346  -0.49226
 Alpha  occ. eigenvalues --   -0.49143  -0.49091  -0.48809  -0.48268  -0.47743
 Alpha  occ. eigenvalues --   -0.47165  -0.46681  -0.45981  -0.45611  -0.45059
 Alpha  occ. eigenvalues --   -0.44820  -0.44128  -0.44079  -0.43045  -0.42918
 Alpha  occ. eigenvalues --   -0.42797  -0.42041  -0.41928  -0.41509  -0.41026
 Alpha  occ. eigenvalues --   -0.40710  -0.40391  -0.39765  -0.39612  -0.39086
 Alpha  occ. eigenvalues --   -0.38996  -0.38298  -0.38051  -0.37608  -0.37475
 Alpha  occ. eigenvalues --   -0.36479  -0.35851  -0.35288  -0.35057  -0.34835
 Alpha  occ. eigenvalues --   -0.33955  -0.33771  -0.33538  -0.32874  -0.31069
 Alpha  occ. eigenvalues --   -0.31036  -0.28732  -0.28341  -0.28164  -0.27970
 Alpha  occ. eigenvalues --   -0.27537  -0.26776  -0.25887  -0.23547  -0.22061
 Alpha virt. eigenvalues --   -0.04717  -0.04344  -0.03086  -0.02493   0.03488
 Alpha virt. eigenvalues --    0.05022   0.05432   0.05891   0.06011   0.06815
 Alpha virt. eigenvalues --    0.07352   0.09032   0.10174   0.10384   0.10656
 Alpha virt. eigenvalues --    0.10797   0.11440   0.12200   0.12572   0.13064
 Alpha virt. eigenvalues --    0.13386   0.13715   0.14654   0.14979   0.15191
 Alpha virt. eigenvalues --    0.15509   0.15711   0.16333   0.16781   0.16964
 Alpha virt. eigenvalues --    0.17195   0.17428   0.17851   0.18534   0.18673
 Alpha virt. eigenvalues --    0.18916   0.19157   0.19961   0.20557   0.20922
 Alpha virt. eigenvalues --    0.21046   0.22060   0.23111   0.23877   0.24205
 Alpha virt. eigenvalues --    0.24826   0.25541   0.25816   0.26411   0.27142
 Alpha virt. eigenvalues --    0.27408   0.28567   0.28970   0.31445   0.31837
 Alpha virt. eigenvalues --    0.32134   0.33599   0.34566   0.36005   0.37893
 Alpha virt. eigenvalues --    0.38819   0.39645   0.40049   0.40911   0.41623
 Alpha virt. eigenvalues --    0.43047   0.45265   0.46773   0.48371   0.48882
 Alpha virt. eigenvalues --    0.50224   0.50725   0.50919   0.51359   0.51670
 Alpha virt. eigenvalues --    0.52033   0.52317   0.52648   0.53462   0.54338
 Alpha virt. eigenvalues --    0.54732   0.55270   0.55588   0.56028   0.56247
 Alpha virt. eigenvalues --    0.56699   0.57089   0.57750   0.58028   0.58608
 Alpha virt. eigenvalues --    0.59065   0.60055   0.60742   0.61108   0.61767
 Alpha virt. eigenvalues --    0.62033   0.62783   0.63091   0.63504   0.64428
 Alpha virt. eigenvalues --    0.64501   0.65244   0.65699   0.66494   0.67046
 Alpha virt. eigenvalues --    0.67667   0.67860   0.69109   0.70024   0.70240
 Alpha virt. eigenvalues --    0.70371   0.71497   0.71907   0.72413   0.72595
 Alpha virt. eigenvalues --    0.73339   0.73741   0.74460   0.74523   0.75713
 Alpha virt. eigenvalues --    0.76163   0.76455   0.76526   0.77905   0.78309
 Alpha virt. eigenvalues --    0.78632   0.79075   0.80528   0.81365   0.82199
 Alpha virt. eigenvalues --    0.82720   0.83120   0.84138   0.84341   0.84532
 Alpha virt. eigenvalues --    0.84575   0.85047   0.85611   0.85933   0.86408
 Alpha virt. eigenvalues --    0.87109   0.87523   0.88027   0.89339   0.89871
 Alpha virt. eigenvalues --    0.90493   0.90692   0.91255   0.91373   0.92193
 Alpha virt. eigenvalues --    0.92834   0.93436   0.93731   0.94837   0.95341
 Alpha virt. eigenvalues --    0.95625   0.95705   0.96561   0.96970   0.97122
 Alpha virt. eigenvalues --    0.98225   0.98439   0.98836   0.99929   1.00723
 Alpha virt. eigenvalues --    1.01182   1.01402   1.01739   1.02553   1.02933
 Alpha virt. eigenvalues --    1.03194   1.03688   1.04954   1.05963   1.07062
 Alpha virt. eigenvalues --    1.07680   1.09175   1.09826   1.10030   1.11754
 Alpha virt. eigenvalues --    1.12249   1.12572   1.12909   1.15059   1.15396
 Alpha virt. eigenvalues --    1.15760   1.16199   1.17639   1.18940   1.19839
 Alpha virt. eigenvalues --    1.21381   1.21945   1.22426   1.22769   1.23765
 Alpha virt. eigenvalues --    1.24587   1.25269   1.25481   1.26450   1.28318
 Alpha virt. eigenvalues --    1.29167   1.29732   1.31486   1.32952   1.33463
 Alpha virt. eigenvalues --    1.34163   1.35446   1.36436   1.36594   1.37513
 Alpha virt. eigenvalues --    1.38157   1.38454   1.38575   1.39780   1.40565
 Alpha virt. eigenvalues --    1.41484   1.41780   1.43199   1.44016   1.44804
 Alpha virt. eigenvalues --    1.44967   1.46193   1.46852   1.47382   1.49646
 Alpha virt. eigenvalues --    1.50204   1.52821   1.54335   1.55530   1.58461
 Alpha virt. eigenvalues --    1.59322   1.62065   1.62530   1.63767   1.64025
 Alpha virt. eigenvalues --    1.64573   1.65601   1.66195   1.67155   1.68215
 Alpha virt. eigenvalues --    1.68579   1.69862   1.70292   1.70483   1.70676
 Alpha virt. eigenvalues --    1.71032   1.72373   1.72763   1.73186   1.73560
 Alpha virt. eigenvalues --    1.74090   1.74332   1.75716   1.76571   1.77585
 Alpha virt. eigenvalues --    1.77786   1.78273   1.80157   1.80582   1.80893
 Alpha virt. eigenvalues --    1.81019   1.81725   1.81768   1.82455   1.82858
 Alpha virt. eigenvalues --    1.83264   1.84262   1.84849   1.85361   1.85829
 Alpha virt. eigenvalues --    1.86822   1.86886   1.87843   1.88414   1.89845
 Alpha virt. eigenvalues --    1.90038   1.90434   1.90966   1.91800   1.93276
 Alpha virt. eigenvalues --    1.93659   1.93815   1.94361   1.94518   1.95514
 Alpha virt. eigenvalues --    1.95947   1.98041   1.98251   1.98531   1.99684
 Alpha virt. eigenvalues --    2.00835   2.01402   2.01844   2.03206   2.03919
 Alpha virt. eigenvalues --    2.04019   2.04505   2.05031   2.05807   2.06067
 Alpha virt. eigenvalues --    2.06761   2.08365   2.08762   2.10211   2.10821
 Alpha virt. eigenvalues --    2.12324   2.13144   2.13874   2.14769   2.15999
 Alpha virt. eigenvalues --    2.18909   2.19902   2.20163   2.21069   2.22973
 Alpha virt. eigenvalues --    2.23825   2.24724   2.26121   2.26811   2.27397
 Alpha virt. eigenvalues --    2.28037   2.28736   2.29323   2.30178   2.30279
 Alpha virt. eigenvalues --    2.30967   2.32387   2.32734   2.33664   2.33951
 Alpha virt. eigenvalues --    2.34540   2.35312   2.35926   2.37587   2.38250
 Alpha virt. eigenvalues --    2.39362   2.39782   2.42128   2.42522   2.43059
 Alpha virt. eigenvalues --    2.43568   2.44623   2.46269   2.47065   2.47443
 Alpha virt. eigenvalues --    2.48528   2.49451   2.50777   2.51417   2.53119
 Alpha virt. eigenvalues --    2.53748   2.54913   2.56022   2.56941   2.58392
 Alpha virt. eigenvalues --    2.58860   2.60682   2.61453   2.62053   2.63643
 Alpha virt. eigenvalues --    2.64895   2.65951   2.66320   2.68196   2.69352
 Alpha virt. eigenvalues --    2.69996   2.70415   2.71019   2.73393   2.74826
 Alpha virt. eigenvalues --    2.75500   2.77097   2.77309   2.80196   2.80509
 Alpha virt. eigenvalues --    2.83670   2.84859   2.85155   2.89767   2.91092
 Alpha virt. eigenvalues --    2.91362   2.93473   2.94421   2.95962   2.97100
 Alpha virt. eigenvalues --    2.98833   3.00085   3.01129   3.04888   3.06004
 Alpha virt. eigenvalues --    3.07047   3.10116   3.11321   3.12902   3.15876
 Alpha virt. eigenvalues --    3.22178   3.22956   3.41060   3.49597   3.75577
 Alpha virt. eigenvalues --    3.88685   3.92274   3.96231   3.96502   3.99075
 Alpha virt. eigenvalues --    4.05093   4.06714   4.07843   4.13653   4.16992
 Alpha virt. eigenvalues --    4.17699   4.18262   4.22250   4.23717   4.24544
 Alpha virt. eigenvalues --    4.25472   4.31283   4.32623   4.33972   4.37084
 Alpha virt. eigenvalues --    4.38607   4.43490   4.47908   4.48913   4.51242
 Alpha virt. eigenvalues --    4.54255   4.55336   4.58365   4.63409   4.72149
 Alpha virt. eigenvalues --    4.73973   4.79944   4.87939
          Condensed to atoms (all electrons):
 Mulliken atomic charges:
              1
     1  C    0.118226
     2  C    0.295536
     3  C   -0.274230
     4  C    0.125509
     5  C   -0.066620
     6  C    0.230285
     7  C    0.073660
     8  C    0.271001
     9  O   -0.512280
    10  C    0.636191
    11  C   -0.374361
    12  C    0.259614
    13  C   -0.304650
    14  C   -0.357624
    15  C   -0.575803
    16  O   -0.671702
    17  O   -0.642322
    18  O   -0.534548
    19  O   -0.551812
    20  C    0.121690
    21  C    0.088168
    22  C    0.102088
    23  C   -0.136780
    24  C    0.056504
    25  C   -0.372787
    26  O   -0.663282
    27  O   -0.637791
    28  C    0.599495
    29  O   -0.461378
    30  O   -0.487615
    31  C   -0.221653
    32  C    0.586950
    33  O   -0.563785
    34  O   -0.476402
    35  H    0.138682
    36  H    0.173080
    37  H    0.194171
    38  H    0.171004
    39  H    0.166682
    40  H    0.182295
    41  H    0.177251
    42  H    0.209453
    43  H    0.162321
    44  H    0.158843
    45  H    0.450546
    46  H    0.419753
    47  H    0.141629
    48  H    0.146820
    49  H    0.148505
    50  H    0.183124
    51  H    0.170822
    52  H    0.183933
    53  H    0.411641
    54  H    0.406182
    55  H    0.161426
    56  H    0.173906
    57  H    0.174065
    58  H    0.416373
 Sum of Mulliken atomic charges =   0.00000
 Mulliken charges with hydrogens summed into heavy atoms:
              1
     1  C    0.118226
     2  C    0.295536
     3  C   -0.135548
     4  C    0.125509
     5  C   -0.066620
     6  C    0.230285
     7  C    0.073660
     8  C    0.271001
     9  O   -0.512280
    10  C    0.636191
    11  C   -0.007110
    12  C    0.259614
    13  C    0.033036
    14  C    0.001923
    15  C   -0.045185
    16  O   -0.221156
    17  O   -0.222569
    18  O   -0.534548
    19  O   -0.551812
    20  C    0.263318
    21  C    0.234987
    22  C    0.250594
    23  C    0.046344
    24  C    0.056504
    25  C   -0.018032
    26  O   -0.251641
    27  O   -0.231609
    28  C    0.599495
    29  O   -0.461378
    30  O   -0.487615
    31  C    0.287744
    32  C    0.586950
    33  O   -0.147412
    34  O   -0.476402
 Sum of Mulliken charges with hydrogens summed into heavy atoms =   0.00000
 Electronic spatial extent (au):  <R**2>=          20386.9008
 Charge=              0.0000 electrons
 Dipole moment (field-independent basis, Debye):
    X=              0.8390    Y=             -5.4353    Z=             -0.5246  Tot=              5.5246
 Quadrupole moment (field-independent basis, Debye-Ang):
   XX=           -206.6878   YY=           -193.7479   ZZ=           -195.1523
   XY=              0.7318   XZ=            -15.7809   YZ=              5.8712
 Traceless Quadrupole moment (field-independent basis, Debye-Ang):
   XX=             -8.1585   YY=              4.7815   ZZ=              3.3770
   XY=              0.7318   XZ=            -15.7809   YZ=              5.8712
 Octapole moment (field-independent basis, Debye-Ang**2):
  XXX=            161.2143  YYY=            -60.8988  ZZZ=            -13.4567  XYY=            -64.8919
  XXY=           -242.0461  XXZ=            -66.5164  XZZ=             26.8689  YZZ=              1.1110
  YYZ=            -24.6279  XYZ=            -27.3135
 Hexadecapole moment (field-independent basis, Debye-Ang**3):
 XXXX=         -21002.1872 YYYY=          -3486.7241 ZZZZ=          -1800.5697 XXXY=            289.8402
 XXXZ=           -728.4742 YYYX=            177.3079 YYYZ=            -10.7253 ZZZX=            -52.9472
 ZZZY=             66.7126 XXYY=          -3790.0879 XXZZ=          -3631.2326 YYZZ=           -971.2653
 XXYZ=            259.9046 YYXZ=            -96.6346 ZZXY=            -52.4560
 N-N= 3.669036475943D+03 E-N=-1.135095817625D+04  KE= 1.702851146950D+03
 Calling FoFJK, ICntrl=      2127 FMM=T ISym2X=0 I1Cent= 0 IOpClX= 0 NMat=1 NMatS=1 NMatT=0.
 ***** Axes restored to original set *****
 -------------------------------------------------------------------
 Center     Atomic                   Forces (Hartrees/Bohr)
 Number     Number              X              Y              Z
 -------------------------------------------------------------------
      1        6           0.004115738   -0.005891321   -0.005110419
      2        6          -0.005639108    0.004535942   -0.000987691
      3        6          -0.008060480    0.004401077   -0.002872412
      4        6          -0.010606579    0.014924971    0.014373452
      5        6          -0.002915018   -0.009314701   -0.025491854
      6        6           0.018659833   -0.016883914   -0.004974761
      7        6           0.009986832   -0.008472941    0.006862386
      8        6           0.006162462   -0.003170922   -0.007139253
      9        8          -0.009615283    0.005605144   -0.003484248
     10        6           0.012697652    0.006365349    0.037064104
     11        6           0.000398626   -0.006647689    0.001787214
     12        6           0.016638648    0.002094323   -0.001075010
     13        6          -0.000807856    0.003117977   -0.002771113
     14        6           0.003373500   -0.007968045   -0.002399324
     15        6           0.000106655   -0.000615937    0.000430682
     16        8          -0.009194226    0.014193738    0.015243133
     17        8           0.002588818   -0.003400141   -0.002412113
     18        8          -0.012068636   -0.000383987   -0.022587523
     19        8          -0.000137835    0.007152867    0.000576310
     20        6          -0.010801737   -0.006830647    0.006471346
     21        6           0.018347351    0.004131348   -0.005443692
     22        6           0.004448871   -0.009824527    0.009402195
     23        6          -0.000895546    0.005949640    0.003113021
     24        6           0.000102506   -0.011598138   -0.009181885
     25        6           0.005281039    0.006710875    0.001962005
     26        8          -0.001627445    0.002444685   -0.003489046
     27        8           0.000538222   -0.006339780    0.002672478
     28        6           0.001136408   -0.009508689   -0.006093962
     29        8          -0.007945528   -0.000110540   -0.003261267
     30        8           0.007607249    0.009760708    0.009811731
     31        6          -0.005362573    0.009865590    0.002788526
     32        6          -0.018153557    0.011710180   -0.006231473
     33        8           0.001838917   -0.002428452    0.003683781
     34        8           0.008905190   -0.012782899    0.001162079
     35        1           0.001372786   -0.001707862   -0.000530792
     36        1          -0.003384915    0.001147923    0.000960238
     37        1          -0.000150719    0.003031857   -0.001924588
     38        1          -0.003560266   -0.000743387    0.003934533
     39        1           0.000318889    0.001123667    0.001451627
     40        1          -0.000497541   -0.002463489   -0.001482793
     41        1           0.000812395   -0.002453314    0.000125119
     42        1          -0.003480018    0.002147266   -0.002762166
     43        1           0.002634394    0.000729743    0.003945076
     44        1           0.001503525    0.000364350    0.004328296
     45        1          -0.007127186    0.004307677   -0.002644126
     46        1           0.000079180   -0.000501215   -0.000828475
     47        1          -0.000940082    0.000122615   -0.001341083
     48        1          -0.009954967    0.006078097   -0.000694921
     49        1           0.006773552    0.005432275   -0.004227814
     50        1           0.000960761    0.001737515    0.001763667
     51        1          -0.002316841    0.001929158    0.002664558
     52        1           0.003004747    0.000947537   -0.000418394
     53        1          -0.004383185   -0.003085851   -0.002066153
     54        1          -0.004065658    0.001258546   -0.000809724
     55        1           0.004630361   -0.002970586    0.000344477
     56        1          -0.002543398   -0.002916361    0.000700382
     57        1          -0.000621024   -0.000669598   -0.003833239
     58        1           0.001832101   -0.003637708    0.000948898
 -------------------------------------------------------------------
 Cartesian Forces:  Max     0.037064104 RMS     0.007215789

 GradGradGradGradGradGradGradGradGradGradGradGradGradGradGradGradGradGrad
 Berny optimization.
 Internal  Forces:  Max     0.027885334 RMS     0.004477436
 Search for a local minimum.
 Step number   1 out of a maximum of  340
 All quantities printed in internal units (Hartrees-Bohrs-Radians)
 Mixed Optimization -- RFO/linear search
 Second derivative matrix not updated -- first step.
 ITU=  0
     Eigenvalues ---    0.00230   0.00467   0.00507   0.00568   0.00595
     Eigenvalues ---    0.00703   0.00714   0.00910   0.01164   0.01176
     Eigenvalues ---    0.01186   0.01187   0.01211   0.01280   0.01288
     Eigenvalues ---    0.01317   0.01357   0.01365   0.01367   0.01419
     Eigenvalues ---    0.01510   0.01643   0.01717   0.01732   0.01801
     Eigenvalues ---    0.01906   0.01980   0.02022   0.02032   0.02096
     Eigenvalues ---    0.02105   0.02122   0.02124   0.02255   0.02356
     Eigenvalues ---    0.02788   0.03082   0.03414   0.03567   0.04057
     Eigenvalues ---    0.04369   0.04758   0.04769   0.04941   0.05026
     Eigenvalues ---    0.05144   0.05437   0.05757   0.05781   0.05880
     Eigenvalues ---    0.06099   0.06693   0.07054   0.07154   0.07331
     Eigenvalues ---    0.07840   0.08100   0.08199   0.08261   0.08283
     Eigenvalues ---    0.09449   0.09593   0.09638   0.09908   0.09995
     Eigenvalues ---    0.10105   0.10500   0.11855   0.12022   0.14317
     Eigenvalues ---    0.14631   0.16000   0.16000   0.16000   0.16000
     Eigenvalues ---    0.16000   0.16000   0.16000   0.16000   0.16000
     Eigenvalues ---    0.16000   0.16000   0.16000   0.16597   0.16716
     Eigenvalues ---    0.17045   0.18929   0.19319   0.19858   0.23010
     Eigenvalues ---    0.23526   0.24359   0.24991   0.24993   0.24995
     Eigenvalues ---    0.24997   0.24999   0.24999   0.24999   0.24999
     Eigenvalues ---    0.25000   0.25000   0.25000   0.25000   0.25000
     Eigenvalues ---    0.25000   0.25000   0.26519   0.27321   0.27534
     Eigenvalues ---    0.27791   0.28094   0.28397   0.28763   0.30336
     Eigenvalues ---    0.31146   0.31568   0.31972   0.32427   0.32665
     Eigenvalues ---    0.33543   0.33746   0.33826   0.33863   0.33900
     Eigenvalues ---    0.34004   0.34050   0.34090   0.34142   0.34166
     Eigenvalues ---    0.34180   0.34220   0.34240   0.34251   0.34291
     Eigenvalues ---    0.34292   0.34396   0.34409   0.34618   0.34924
     Eigenvalues ---    0.35156   0.38359   0.39722   0.39833   0.39842
     Eigenvalues ---    0.40832   0.41234   0.41668   0.43265   0.44374
     Eigenvalues ---    0.45210   0.45438   0.45922   0.49731   0.50221
     Eigenvalues ---    0.50706   0.51208   0.51487   0.51804   0.52083
     Eigenvalues ---    0.52681   0.53299   0.53476   0.53633   0.55067
     Eigenvalues ---    0.91603   0.94958   0.95058
 RFO step:  Lambda=-2.56390238D-02 EMin= 2.30000000D-03
 Linear search not attempted -- first point.
 Iteration  1 RMS(Cart)=  0.11487356 RMS(Int)=  0.00208231
 Iteration  2 RMS(Cart)=  0.00471128 RMS(Int)=  0.00036791
 Iteration  3 RMS(Cart)=  0.00001044 RMS(Int)=  0.00036788
 Iteration  4 RMS(Cart)=  0.00000002 RMS(Int)=  0.00036788
 Variable       Old X    -DE/DX   Delta X   Delta X   Delta X     New X
                                 (Linear)    (Quad)   (Total)
    R1        2.64155   0.00566   0.00000   0.01066   0.01096   2.65251
    R2        2.65290  -0.00141   0.00000  -0.00319  -0.00329   2.64961
    R3        2.84195   0.00369   0.00000   0.01069   0.01069   2.85263
    R4        2.64022   0.00152   0.00000   0.00237   0.00275   2.64297
    R5        2.58394  -0.00473   0.00000  -0.00875  -0.00875   2.57518
    R6        2.64790  -0.00501   0.00000  -0.01022  -0.01013   2.63777
    R7        2.05423  -0.00224   0.00000  -0.00593  -0.00593   2.04830
    R8        2.64755   0.01164   0.00000   0.02697   0.02635   2.67390
    R9        2.78454  -0.00975   0.00000  -0.02453  -0.02445   2.76010
   R10        2.67005   0.00132   0.00000   0.00499   0.00355   2.67360
   R11        2.79706  -0.01004   0.00000  -0.02491  -0.02614   2.77091
   R12        2.59845  -0.02789   0.00000  -0.05266  -0.05291   2.54554
   R13        2.53715   0.00364   0.00000   0.00765   0.00801   2.54516
   R14        2.86595  -0.00232   0.00000  -0.00657  -0.00654   2.85942
   R15        2.65934  -0.01934   0.00000  -0.04291  -0.04257   2.61677
   R16        2.83761  -0.00513   0.00000  -0.01126  -0.01134   2.82627
   R17        2.57064  -0.00237   0.00000  -0.00517  -0.00523   2.56541
   R18        2.32105  -0.00102   0.00000  -0.00126  -0.00115   2.31990
   R19        2.94375  -0.00400   0.00000  -0.01805  -0.01798   2.92577
   R20        2.07625  -0.00027   0.00000  -0.00073  -0.00073   2.07552
   R21        2.07562  -0.00246   0.00000  -0.00676  -0.00676   2.06886
   R22        2.91098  -0.00141   0.00000  -0.00701  -0.00696   2.90402
   R23        2.71769  -0.00822   0.00000  -0.01938  -0.01938   2.69831
   R24        2.91279  -0.00366   0.00000  -0.01184  -0.01184   2.90096
   R25        2.88631   0.00429   0.00000   0.01231   0.01227   2.89858
   R26        2.07760  -0.00319   0.00000  -0.00878  -0.00878   2.06883
   R27        2.07090  -0.00113   0.00000  -0.00307  -0.00307   2.06783
   R28        2.07050   0.00245   0.00000   0.00668   0.00668   2.07718
   R29        2.07246  -0.00005   0.00000  -0.00015  -0.00015   2.07232
   R30        2.06668  -0.00266   0.00000  -0.00721  -0.00721   2.05947
   R31        2.06927   0.00294   0.00000   0.00798   0.00798   2.07725
   R32        2.06961   0.00290   0.00000   0.00789   0.00789   2.07749
   R33        1.85890   0.00480   0.00000   0.00807   0.00907   1.86797
   R34        1.83376  -0.00025   0.00000  -0.00045  -0.00045   1.83331
   R35        3.21572   0.00332   0.00000   0.02704   0.02815   3.24387
   R36        2.71933  -0.00209   0.00000  -0.00493  -0.00493   2.71440
   R37        2.90940  -0.00780   0.00000  -0.02313  -0.02312   2.88628
   R38        2.90750   0.00012   0.00000  -0.00223  -0.00219   2.90532
   R39        2.06909   0.00107   0.00000   0.00292   0.00292   2.07201
   R40        2.90404  -0.00830   0.00000  -0.02734  -0.02733   2.87672
   R41        2.71781  -0.00324   0.00000  -0.00763  -0.00763   2.71018
   R42        2.07499   0.00050   0.00000   0.00137   0.00137   2.07636
   R43        2.82207   0.00327   0.00000   0.01042   0.01038   2.83245
   R44        2.69348   0.00630   0.00000   0.01425   0.01425   2.70774
   R45        2.07178   0.00491   0.00000   0.01340   0.01340   2.08518
   R46        2.54370  -0.00432   0.00000  -0.00692  -0.00695   2.53674
   R47        2.05798  -0.00200   0.00000  -0.00534  -0.00534   2.05263
   R48        2.84554   0.00550   0.00000   0.01546   0.01546   2.86100
   R49        2.81408   0.00453   0.00000   0.01254   0.01254   2.82662
   R50        2.07028   0.00019   0.00000   0.00051   0.00051   2.07079
   R51        2.07324  -0.00039   0.00000  -0.00107  -0.00107   2.07217
   R52        1.84788  -0.00563   0.00000  -0.01036  -0.01036   1.83751
   R53        1.84520  -0.00405   0.00000  -0.00741  -0.00741   1.83780
   R54        2.56512  -0.00117   0.00000  -0.00209  -0.00209   2.56303
   R55        2.30729  -0.01326   0.00000  -0.01360  -0.01360   2.29369
   R56        2.69910   0.00511   0.00000   0.01167   0.01167   2.71077
   R57        2.06645  -0.00093   0.00000  -0.00251  -0.00251   2.06394
   R58        2.06839  -0.00091   0.00000  -0.00246  -0.00246   2.06593
   R59        2.06841  -0.00096   0.00000  -0.00261  -0.00261   2.06580
   R60        2.55073   0.00254   0.00000   0.00441   0.00441   2.55514
   R61        2.30686  -0.01157   0.00000  -0.01185  -0.01185   2.29501
   R62        1.85365  -0.00403   0.00000  -0.00750  -0.00750   1.84615
    A1        2.04979  -0.00050   0.00000  -0.00146  -0.00190   2.04789
    A2        2.11644  -0.00100   0.00000  -0.00379  -0.00357   2.11287
    A3        2.11692   0.00150   0.00000   0.00528   0.00549   2.12241
    A4        2.12189   0.00438   0.00000   0.01539   0.01541   2.13730
    A5        2.14699  -0.00721   0.00000  -0.02589  -0.02590   2.12108
    A6        2.01431   0.00282   0.00000   0.01050   0.01049   2.02480
    A7        2.11468  -0.00603   0.00000  -0.02268  -0.02284   2.09184
    A8        2.04753   0.00293   0.00000   0.01087   0.01096   2.05849
    A9        2.12097   0.00310   0.00000   0.01180   0.01188   2.13285
   A10        2.05902   0.00586   0.00000   0.02247   0.02204   2.08106
   A11        2.13322   0.00383   0.00000   0.00784   0.00868   2.14190
   A12        2.09091  -0.00969   0.00000  -0.03029  -0.03071   2.06020
   A13        2.10435  -0.00390   0.00000  -0.01514  -0.01426   2.09009
   A14        2.08740   0.00291   0.00000   0.01145   0.01234   2.09973
   A15        2.09141   0.00099   0.00000   0.00370   0.00193   2.09334
   A16        2.11654   0.00020   0.00000   0.00148   0.00159   2.11813
   A17        2.03979   0.00499   0.00000   0.01359   0.01538   2.05518
   A18        2.12685  -0.00518   0.00000  -0.01507  -0.01697   2.10988
   A19        2.05575   0.00435   0.00000   0.01759   0.01754   2.07328
   A20        2.10443  -0.00137   0.00000  -0.00721  -0.00718   2.09726
   A21        2.12300  -0.00298   0.00000  -0.01038  -0.01036   2.11264
   A22        2.14828   0.00140   0.00000   0.00068   0.00087   2.14915
   A23        2.15819   0.00676   0.00000   0.03088   0.03067   2.18886
   A24        1.97661  -0.00814   0.00000  -0.03136  -0.03143   1.94518
   A25        2.13213   0.00052   0.00000  -0.00137  -0.00182   2.13032
   A26        2.05103   0.00052   0.00000   0.00214   0.00196   2.05298
   A27        2.10171   0.02567   0.00000   0.09556   0.09436   2.19607
   A28        2.13041  -0.02619   0.00000  -0.09768  -0.09630   2.03411
   A29        2.00249  -0.00163   0.00000  -0.01580  -0.01567   1.98682
   A30        1.88278   0.00304   0.00000   0.02699   0.02696   1.90975
   A31        1.89919   0.00163   0.00000   0.01484   0.01464   1.91383
   A32        1.92106  -0.00195   0.00000  -0.01158  -0.01158   1.90947
   A33        1.87733  -0.00002   0.00000  -0.00334  -0.00324   1.87408
   A34        1.87728  -0.00106   0.00000  -0.01116  -0.01144   1.86584
   A35        1.88591   0.00394   0.00000   0.02874   0.02850   1.91441
   A36        1.84417  -0.00218   0.00000  -0.01936  -0.01927   1.82490
   A37        1.84750   0.00081   0.00000   0.01872   0.01826   1.86576
   A38        1.96881   0.00029   0.00000  -0.00124  -0.00105   1.96777
   A39        1.91678  -0.00051   0.00000   0.00555   0.00482   1.92160
   A40        1.99216  -0.00197   0.00000  -0.02841  -0.02831   1.96385
   A41        1.95352  -0.00034   0.00000  -0.00812  -0.00778   1.94574
   A42        1.91208  -0.00386   0.00000  -0.02558  -0.02562   1.88646
   A43        1.94640   0.00076   0.00000  -0.00113  -0.00116   1.94524
   A44        1.90070   0.00420   0.00000   0.02788   0.02765   1.92835
   A45        1.90644  -0.00072   0.00000   0.00668   0.00651   1.91295
   A46        1.84087   0.00010   0.00000   0.00170   0.00143   1.84230
   A47        1.96827  -0.00540   0.00000  -0.02402  -0.02402   1.94424
   A48        1.89885   0.00094   0.00000   0.00500   0.00508   1.90393
   A49        1.91217   0.00090   0.00000  -0.00408  -0.00389   1.90828
   A50        1.92501   0.00247   0.00000   0.01408   0.01412   1.93913
   A51        1.89380   0.00301   0.00000   0.01820   0.01802   1.91183
   A52        1.86280  -0.00174   0.00000  -0.00854  -0.00871   1.85409
   A53        1.97532  -0.00755   0.00000  -0.04189  -0.04163   1.93369
   A54        1.91892   0.00520   0.00000   0.02823   0.02813   1.94705
   A55        1.92053   0.00458   0.00000   0.02566   0.02556   1.94610
   A56        1.87360   0.00058   0.00000   0.00128   0.00153   1.87513
   A57        1.86580   0.00129   0.00000   0.00649   0.00673   1.87253
   A58        1.90773  -0.00439   0.00000  -0.02124  -0.02166   1.88607
   A59        1.90965  -0.01947   0.00000  -0.10105  -0.10197   1.80768
   A60        1.91723  -0.00171   0.00000  -0.00923  -0.00923   1.90800
   A61        2.08342   0.00384   0.00000   0.01394   0.01394   2.09736
   A62        1.84753  -0.00475   0.00000  -0.02982  -0.03010   1.81743
   A63        1.97369   0.00093   0.00000   0.01373   0.01397   1.98766
   A64        1.91384   0.00110   0.00000   0.00052   0.00020   1.91404
   A65        1.91091   0.00552   0.00000   0.02818   0.02822   1.93913
   A66        1.88281  -0.00201   0.00000  -0.01066  -0.01077   1.87204
   A67        1.93121  -0.00103   0.00000  -0.00381  -0.00371   1.92750
   A68        1.93667   0.00276   0.00000   0.00852   0.00870   1.94537
   A69        1.91944   0.00420   0.00000   0.02106   0.02098   1.94041
   A70        1.92850  -0.00331   0.00000  -0.01732  -0.01819   1.91032
   A71        1.90155  -0.00766   0.00000  -0.03759  -0.03754   1.86401
   A72        1.93163  -0.00133   0.00000  -0.03343  -0.03333   1.89830
   A73        1.84370   0.00539   0.00000   0.06086   0.06055   1.90425
   A74        1.96930  -0.00282   0.00000  -0.01652  -0.01684   1.95245
   A75        1.90278   0.00437   0.00000   0.02581   0.02591   1.92869
   A76        1.93057  -0.00395   0.00000  -0.03768  -0.03803   1.89254
   A77        1.88648  -0.00048   0.00000   0.00068   0.00085   1.88733
   A78        1.90702   0.00135   0.00000   0.00089  -0.00005   1.90697
   A79        1.86421   0.00189   0.00000   0.03052   0.03082   1.89504
   A80        2.14731   0.00237   0.00000   0.01423   0.01417   2.16148
   A81        2.02840   0.00032   0.00000   0.00097   0.00100   2.02940
   A82        2.10747  -0.00268   0.00000  -0.01518  -0.01516   2.09231
   A83        2.14060   0.00125   0.00000   0.00629   0.00624   2.14683
   A84        2.05923  -0.00215   0.00000  -0.00859  -0.00861   2.05063
   A85        2.08312   0.00092   0.00000   0.00259   0.00257   2.08569
   A86        1.99174  -0.00758   0.00000  -0.03554  -0.03543   1.95631
   A87        1.88681   0.00468   0.00000   0.03100   0.03116   1.91797
   A88        1.91171   0.00011   0.00000  -0.00847  -0.00842   1.90329
   A89        1.90124   0.00169   0.00000   0.00390   0.00410   1.90534
   A90        1.90136   0.00373   0.00000   0.02357   0.02334   1.92470
   A91        1.86694  -0.00237   0.00000  -0.01349  -0.01350   1.85344
   A92        1.83297   0.00050   0.00000   0.00267   0.00267   1.83564
[...]
     53          1           0       -0.259970    1.875364   -0.679259
     54          1           0       -2.544595    4.020989   -1.718722
     55          1           0       -6.998837   -3.246174   -0.318243
     56          1           0       -7.929999   -1.823670    0.259384
     57          1           0       -7.696247   -2.073107   -1.485952
     58          1           0       -2.080319   -3.742524    0.296333
 ---------------------------------------------------------------------
 Rotational constants (GHZ):      0.2332771      0.0573388      0.0526414

 **********************************************************************

            Population analysis using the SCF density.

 **********************************************************************

 Orbital symmetries:
       Occupied  (A) (A) (A) (A) (A) (A) (A) (A) (A) (A) (A) (A)
                 (A) (A) (A) (A) (A) (A) (A) (A) (A) (A) (A) (A)
                 (A) (A) (A) (A) (A) (A) (A) (A) (A) (A) (A) (A)
                 (A) (A) (A) (A) (A) (A) (A) (A) (A) (A) (A) (A)
                 (A) (A) (A) (A) (A) (A) (A) (A) (A) (A) (A) (A)
                 (A) (A) (A) (A) (A) (A) (A) (A) (A) (A) (A) (A)
                 (A) (A) (A) (A) (A) (A) (A) (A) (A) (A) (A) (A)
                 (A) (A) (A) (A) (A) (A) (A) (A) (A) (A) (A) (A)
                 (A) (A) (A) (A) (A) (A) (A) (A) (A) (A) (A) (A)
                 (A) (A) (A) (A) (A) (A) (A) (A) (A) (A) (A) (A)
                 (A) (A) (A) (A) (A)
       Virtual   (A) (A) (A) (A) (A) (A) (A) (A) (A) (A) (A) (A)
                 (A) (A) (A) (A) (A) (A) (A) (A) (A) (A) (A) (A)
                 (A) (A) (A) (A) (A) (A) (A) (A) (A) (A) (A) (A)
                 (A) (A) (A) (A) (A) (A) (A) (A) (A) (A) (A) (A)
                 (A) (A) (A) (A) (A) (A) (A) (A) (A) (A) (A) (A)
                 (A) (A) (A) (A) (A) (A) (A) (A) (A) (A) (A) (A)
                 (A) (A) (A) (A) (A) (A) (A) (A) (A) (A) (A) (A)
                 (A) (A) (A) (A) (A) (A) (A) (A) (A) (A) (A) (A)
                 (A) (A) (A) (A) (A) (A) (A) (A) (A) (A) (A) (A)
                 (A) (A) (A) (A) (A) (A) (A) (A) (A) (A) (A) (A)
                 (A) (A) (A) (A) (A) (A) (A) (A) (A) (A) (A) (A)
                 (A) (A) (A) (A) (A) (A) (A) (A) (A) (A) (A) (A)
                 (A) (A) (A) (A) (A) (A) (A) (A) (A) (A) (A) (A)
                 (A) (A) (A) (A) (A) (A) (A) (A) (A) (A) (A) (A)
                 (A) (A) (A) (A) (A) (A) (A) (A) (A) (A) (A) (A)
                 (A) (A) (A) (A) (A) (A) (A) (A) (A) (A) (A) (A)
                 (A) (A) (A) (A) (A) (A) (A) (A) (A) (A) (A) (A)
                 (A) (A) (A) (A) (A) (A) (A) (A) (A) (A) (A) (A)
                 (A) (A) (A) (A) (A) (A) (A) (A) (A) (A) (A) (A)
                 (A) (A) (A) (A) (A) (A) (A) (A) (A) (A) (A) (A)
                 (A) (A) (A) (A) (A) (A) (A) (A) (A) (A) (A) (A)
                 (A) (A) (A) (A) (A) (A) (A) (A) (A) (A) (A) (A)
                 (A) (A) (A) (A) (A) (A) (A) (A) (A) (A) (A) (A)
                 (A) (A) (A) (A) (A) (A) (A) (A) (A) (A) (A) (A)
                 (A) (A) (A) (A) (A) (A) (A) (A) (A) (A) (A) (A)
                 (A) (A) (A) (A) (A) (A) (A) (A) (A) (A) (A) (A)
                 (A) (A) (A) (A) (A) (A) (A) (A) (A) (A) (A) (A)
                 (A) (A) (A) (A) (A) (A) (A) (A) (A) (A) (A) (A)
                 (A) (A) (A) (A) (A) (A) (A) (A) (A) (A) (A) (A)
                 (A) (A) (A) (A) (A) (A) (A) (A) (A) (A) (A) (A)
                 (A) (A) (A) (A) (A) (A) (A) (A) (A) (A) (A) (A)
                 (A) (A) (A) (A) (A) (A) (A) (A) (A) (A) (A) (A)
                 (A) (A) (A) (A) (A) (A) (A) (A) (A) (A) (A) (A)
                 (A) (A) (A) (A) (A) (A) (A) (A) (A) (A) (A) (A)
                 (A) (A) (A) (A) (A) (A) (A) (A) (A) (A) (A) (A)
                 (A) (A) (A) (A) (A) (A) (A) (A) (A) (A) (A) (A)
                 (A)
 The electronic state is 1-A.
 Alpha  occ. eigenvalues --  -19.22178 -19.21768 -19.19789 -19.19781 -19.17948
 Alpha  occ. eigenvalues --  -19.17463 -19.16304 -19.16266 -19.14807 -19.14414
 Alpha  occ. eigenvalues --  -19.13561 -10.33910 -10.32939 -10.31766 -10.28212
 Alpha  occ. eigenvalues --  -10.27254 -10.27189 -10.27104 -10.25681 -10.25005
 Alpha  occ. eigenvalues --  -10.24586 -10.24479 -10.22680 -10.21664 -10.21541
 Alpha  occ. eigenvalues --  -10.21531 -10.21044 -10.20867 -10.20853 -10.20761
 Alpha  occ. eigenvalues --  -10.20520 -10.20379 -10.20038 -10.19379  -1.12822
 Alpha  occ. eigenvalues --   -1.12590  -1.10444  -1.08042  -1.06831  -1.06308
 Alpha  occ. eigenvalues --   -1.03831  -1.03710  -1.02999  -1.01697  -1.01433
 Alpha  occ. eigenvalues --   -0.88033  -0.86190  -0.84632  -0.80955  -0.79309
 Alpha  occ. eigenvalues --   -0.77146  -0.76459  -0.76318  -0.74776  -0.72301
 Alpha  occ. eigenvalues --   -0.71044  -0.69093  -0.66458  -0.66176  -0.64556
 Alpha  occ. eigenvalues --   -0.64017  -0.63259  -0.61606  -0.59016  -0.57890
 Alpha  occ. eigenvalues --   -0.57259  -0.55851  -0.55313  -0.54167  -0.53299
 Alpha  occ. eigenvalues --   -0.52447  -0.51811  -0.51070  -0.50482  -0.49425
 Alpha  occ. eigenvalues --   -0.49184  -0.48711  -0.48553  -0.48226  -0.47539
 Alpha  occ. eigenvalues --   -0.46993  -0.46628  -0.45953  -0.45520  -0.44962
 Alpha  occ. eigenvalues --   -0.44514  -0.44077  -0.43869  -0.43392  -0.42679
 Alpha  occ. eigenvalues --   -0.42529  -0.42121  -0.41843  -0.41433  -0.41296
 Alpha  occ. eigenvalues --   -0.40605  -0.40318  -0.40017  -0.39923  -0.39484
 Alpha  occ. eigenvalues --   -0.38992  -0.38257  -0.37924  -0.37658  -0.37431
 Alpha  occ. eigenvalues --   -0.36255  -0.35837  -0.35636  -0.35293  -0.34882
 Alpha  occ. eigenvalues --   -0.34101  -0.33853  -0.33703  -0.33068  -0.30899
 Alpha  occ. eigenvalues --   -0.30637  -0.28768  -0.28571  -0.28362  -0.28170
 Alpha  occ. eigenvalues --   -0.27073  -0.26576  -0.25885  -0.23680  -0.21981
 Alpha virt. eigenvalues --   -0.04802  -0.04515  -0.03037  -0.02057   0.03689
 Alpha virt. eigenvalues --    0.05099   0.05500   0.06037   0.06388   0.07308
 Alpha virt. eigenvalues --    0.07682   0.09407   0.10201   0.10758   0.11010
 Alpha virt. eigenvalues --    0.11508   0.11950   0.12500   0.12827   0.13168
 Alpha virt. eigenvalues --    0.13687   0.14074   0.14824   0.15253   0.15510
 Alpha virt. eigenvalues --    0.15884   0.16118   0.16361   0.16744   0.17243
 Alpha virt. eigenvalues --    0.17508   0.17646   0.17918   0.18651   0.18990
 Alpha virt. eigenvalues --    0.19256   0.19728   0.20194   0.20718   0.21126
 Alpha virt. eigenvalues --    0.21396   0.22399   0.23672   0.23869   0.23902
 Alpha virt. eigenvalues --    0.25332   0.26104   0.26539   0.27046   0.27654
 Alpha virt. eigenvalues --    0.28056   0.29037   0.29329   0.31603   0.32070
 Alpha virt. eigenvalues --    0.32319   0.33426   0.34430   0.36315   0.37778
 Alpha virt. eigenvalues --    0.39319   0.39777   0.39903   0.40883   0.42049
 Alpha virt. eigenvalues --    0.43407   0.45328   0.46803   0.48394   0.49020
 Alpha virt. eigenvalues --    0.50326   0.50859   0.51027   0.51410   0.51548
 Alpha virt. eigenvalues --    0.52152   0.52370   0.52646   0.53643   0.53808
 Alpha virt. eigenvalues --    0.54517   0.55404   0.55698   0.56102   0.56115
 Alpha virt. eigenvalues --    0.56495   0.57371   0.57788   0.58246   0.58706
 Alpha virt. eigenvalues --    0.59213   0.60078   0.60828   0.61433   0.61651
 Alpha virt. eigenvalues --    0.61923   0.62404   0.63279   0.63717   0.64215
 Alpha virt. eigenvalues --    0.64927   0.65466   0.65873   0.66511   0.66670
 Alpha virt. eigenvalues --    0.67847   0.68544   0.69275   0.69673   0.69998
 Alpha virt. eigenvalues --    0.70653   0.71040   0.71515   0.72002   0.72290
 Alpha virt. eigenvalues --    0.73317   0.73795   0.74140   0.74699   0.75584
 Alpha virt. eigenvalues --    0.75932   0.76562   0.77022   0.78112   0.78657
 Alpha virt. eigenvalues --    0.78915   0.79652   0.80643   0.81842   0.81929
 Alpha virt. eigenvalues --    0.83332   0.83568   0.84118   0.84312   0.84520
 Alpha virt. eigenvalues --    0.84591   0.85195   0.85833   0.86340   0.86593
 Alpha virt. eigenvalues --    0.86938   0.87717   0.88588   0.89018   0.90448
 Alpha virt. eigenvalues --    0.90732   0.90861   0.91052   0.92177   0.92748
 Alpha virt. eigenvalues --    0.92804   0.93535   0.93708   0.94442   0.95269
 Alpha virt. eigenvalues --    0.95827   0.96069   0.96931   0.97498   0.97961
 Alpha virt. eigenvalues --    0.98454   0.98960   0.99976   1.00239   1.00346
 Alpha virt. eigenvalues --    1.01350   1.01607   1.01844   1.02515   1.03372
 Alpha virt. eigenvalues --    1.03526   1.04549   1.05108   1.06306   1.06727
 Alpha virt. eigenvalues --    1.07943   1.09023   1.10427   1.10731   1.11655
 Alpha virt. eigenvalues --    1.12101   1.12972   1.13954   1.15149   1.16148
 Alpha virt. eigenvalues --    1.16661   1.16844   1.18579   1.18784   1.20268
 Alpha virt. eigenvalues --    1.21653   1.21915   1.22848   1.23799   1.24152
 Alpha virt. eigenvalues --    1.25075   1.25323   1.26327   1.27213   1.28413
 Alpha virt. eigenvalues --    1.29148   1.31317   1.32223   1.33716   1.33856
 Alpha virt. eigenvalues --    1.34308   1.35125   1.36336   1.37585   1.37808
 Alpha virt. eigenvalues --    1.38247   1.38490   1.39438   1.40188   1.40303
 Alpha virt. eigenvalues --    1.41892   1.42660   1.42874   1.43674   1.44782
 Alpha virt. eigenvalues --    1.45339   1.45680   1.46881   1.47481   1.51028
 Alpha virt. eigenvalues --    1.51555   1.53688   1.55516   1.57137   1.59225
 Alpha virt. eigenvalues --    1.59775   1.61839   1.62252   1.64059   1.64929
 Alpha virt. eigenvalues --    1.65653   1.66287   1.66585   1.67303   1.68510
 Alpha virt. eigenvalues --    1.69434   1.69843   1.70341   1.70642   1.70687
 Alpha virt. eigenvalues --    1.71056   1.71795   1.72642   1.73494   1.73661
 Alpha virt. eigenvalues --    1.74427   1.74845   1.75545   1.76568   1.77007
 Alpha virt. eigenvalues --    1.77536   1.78353   1.80097   1.80488   1.80700
 Alpha virt. eigenvalues --    1.81103   1.81745   1.82127   1.82487   1.83543
 Alpha virt. eigenvalues --    1.83626   1.84512   1.85162   1.85446   1.86215
 Alpha virt. eigenvalues --    1.86680   1.87491   1.87995   1.88776   1.89945
 Alpha virt. eigenvalues --    1.90239   1.90517   1.91763   1.92372   1.92825
 Alpha virt. eigenvalues --    1.93772   1.94030   1.94753   1.95371   1.95544
 Alpha virt. eigenvalues --    1.96588   1.97802   1.98391   1.98867   1.99796
 Alpha virt. eigenvalues --    2.00746   2.01487   2.02466   2.03682   2.03827
 Alpha virt. eigenvalues --    2.04330   2.04658   2.05179   2.05991   2.06515
 Alpha virt. eigenvalues --    2.07306   2.09087   2.09760   2.10136   2.11280
 Alpha virt. eigenvalues --    2.12024   2.13238   2.14805   2.15216   2.17340
 Alpha virt. eigenvalues --    2.18861   2.19671   2.20441   2.21662   2.21990
 Alpha virt. eigenvalues --    2.23494   2.25156   2.25902   2.27198   2.28041
 Alpha virt. eigenvalues --    2.28134   2.28817   2.29230   2.29489   2.30497
 Alpha virt. eigenvalues --    2.32184   2.33061   2.33359   2.33923   2.34356
 Alpha virt. eigenvalues --    2.34795   2.35320   2.35707   2.38224   2.39035
 Alpha virt. eigenvalues --    2.40170   2.40705   2.42099   2.42974   2.43305
 Alpha virt. eigenvalues --    2.44229   2.45909   2.46799   2.47287   2.47899
 Alpha virt. eigenvalues --    2.48343   2.49394   2.50631   2.52463   2.54158
 Alpha virt. eigenvalues --    2.54393   2.56202   2.56883   2.57022   2.58029
 Alpha virt. eigenvalues --    2.58520   2.60906   2.61597   2.62210   2.64271
 Alpha virt. eigenvalues --    2.65798   2.66929   2.68609   2.69425   2.69855
 Alpha virt. eigenvalues --    2.70048   2.70405   2.72112   2.74173   2.75525
 Alpha virt. eigenvalues --    2.76345   2.77459   2.78933   2.79931   2.81011
 Alpha virt. eigenvalues --    2.84205   2.85187   2.86599   2.90103   2.90876
 Alpha virt. eigenvalues --    2.91618   2.93426   2.94498   2.96294   2.97396
 Alpha virt. eigenvalues --    2.99399   2.99686   3.02507   3.06213   3.07109
 Alpha virt. eigenvalues --    3.07742   3.09970   3.12470   3.14352   3.16572
 Alpha virt. eigenvalues --    3.22544   3.23449   3.43820   3.50202   3.78534
 Alpha virt. eigenvalues --    3.88744   3.91771   3.95619   3.96385   3.99746
 Alpha virt. eigenvalues --    4.05761   4.06106   4.08241   4.13876   4.16887
 Alpha virt. eigenvalues --    4.18116   4.18637   4.21591   4.25069   4.25425
 Alpha virt. eigenvalues --    4.26182   4.30913   4.32932   4.34184   4.37873
 Alpha virt. eigenvalues --    4.39291   4.43983   4.48218   4.51560   4.53177
 Alpha virt. eigenvalues --    4.55536   4.57300   4.60070   4.65285   4.71781
 Alpha virt. eigenvalues --    4.75366   4.80910   4.88138
          Condensed to atoms (all electrons):
 Mulliken atomic charges:
              1
     1  C    0.110048
     2  C    0.300460
     3  C   -0.273752
     4  C    0.142303
     5  C   -0.062349
     6  C    0.239579
     7  C    0.052827
     8  C    0.277830
     9  O   -0.497289
    10  C    0.598822
    11  C   -0.370040
    12  C    0.246109
    13  C   -0.304284
    14  C   -0.360635
    15  C   -0.585838
    16  O   -0.659287
    17  O   -0.638013
    18  O   -0.536180
    19  O   -0.551891
    20  C    0.127560
    21  C    0.094105
    22  C    0.105791
    23  C   -0.148613
    24  C    0.058389
    25  C   -0.366136
    26  O   -0.652929
    27  O   -0.636281
    28  C    0.596565
    29  O   -0.469418
    30  O   -0.488472
    31  C   -0.217177
    32  C    0.587551
    33  O   -0.565993
    34  O   -0.467764
    35  H    0.142974
    36  H    0.166497
    37  H    0.191620
    38  H    0.167068
    39  H    0.168456
    40  H    0.189502
    41  H    0.176442
    42  H    0.210003
    43  H    0.161762
    44  H    0.161793
    45  H    0.449461
    46  H    0.422380
    47  H    0.138594
    48  H    0.141080
    49  H    0.142102
    50  H    0.185179
    51  H    0.173532
    52  H    0.178378
    53  H    0.413613
    54  H    0.408527
    55  H    0.161829
    56  H    0.174161
    57  H    0.173764
    58  H    0.415684
 Sum of Mulliken atomic charges =   0.00000
 Mulliken charges with hydrogens summed into heavy atoms:
              1
     1  C    0.110048
     2  C    0.300460
     3  C   -0.130778
     4  C    0.142303
     5  C   -0.062349
     6  C    0.239579
     7  C    0.052827
     8  C    0.277830
     9  O   -0.497289
    10  C    0.598822
    11  C   -0.011923
    12  C    0.246109
    13  C    0.031240
    14  C    0.005309
    15  C   -0.052280
    16  O   -0.209827
    17  O   -0.215633
    18  O   -0.536180
    19  O   -0.551891
    20  C    0.266155
    21  C    0.235185
    22  C    0.247893
    23  C    0.036566
    24  C    0.058389
    25  C   -0.014225
    26  O   -0.239316
    27  O   -0.227754
    28  C    0.596565
    29  O   -0.469418
    30  O   -0.488472
    31  C    0.292578
    32  C    0.587551
    33  O   -0.150310
    34  O   -0.467764
 Sum of Mulliken charges with hydrogens summed into heavy atoms =   0.00000
 Electronic spatial extent (au):  <R**2>=          20028.2956
 Charge=              0.0000 electrons
 Dipole moment (field-independent basis, Debye):
    X=              1.1262    Y=             -5.7053    Z=             -0.5190  Tot=              5.8385
 Quadrupole moment (field-independent basis, Debye-Ang):
   XX=           -202.1056   YY=           -194.8177   ZZ=           -195.4757
   XY=              1.8064   XZ=            -17.5373   YZ=              6.0642
 Traceless Quadrupole moment (field-independent basis, Debye-Ang):
   XX=             -4.6393   YY=              2.6487   ZZ=              1.9906
   XY=              1.8064   XZ=            -17.5373   YZ=              6.0642
 Octapole moment (field-independent basis, Debye-Ang**2):
  XXX=            140.6415  YYY=            -63.0354  ZZZ=            -16.8988  XYY=            -59.9835
  XXY=           -241.5518  XXZ=            -55.1279  XZZ=             31.7495  YZZ=             -0.1404
  YYZ=            -20.0284  XYZ=            -34.5495
 Hexadecapole moment (field-independent basis, Debye-Ang**3):
 XXXX=         -20017.7701 YYYY=          -3454.3358 ZZZZ=          -1874.1160 XXXY=            360.8356
 XXXZ=           -853.1805 YYYX=            189.8738 YYYZ=            -16.1406 ZZZX=            -40.7614
 ZZZY=             78.7304 XXYY=          -3810.9483 XXZZ=          -3563.5479 YYZZ=           -987.7877
 XXYZ=            291.7332 YYXZ=            -93.5955 ZZXY=            -58.2185
 N-N= 3.688919923864D+03 E-N=-1.139098751630D+04  KE= 1.703112577264D+03
 1\1\GINC-B0600\FOpt\RB3LYP\6-31G(d)\C23H24O11\CAOFEI\02-Feb-2021\0\\# 
 opt b3lyp/6-31g(d) geom=connectivity\\Title Card Required\\0,1\C,5.203
 9442227,-1.0299781521,2.8351816522\C,4.2759035726,-0.0270689529,3.1635
 713581\C,3.2799221201,0.4043599588,2.279841665\C,3.1857952932,-0.16842
 853,1.0132621318\C,4.1111330965,-1.1824842509,0.6424048092\C,5.1131501
 857,-1.6067296752,1.5604293202\C,2.1822235346,0.2235757557,0.033724388
 5\C,2.1901440269,-0.3655223808,-1.1823151161\O,3.0859045237,-1.3449564
 24,-1.5294237115\C,4.0540608971,-1.7921800646,-0.6640633397\C,1.164768
 0987,1.2940084365,0.3679978075\C,-0.021134722,1.3494735865,-0.61747158
 71\C,0.492354404,1.2521341269,-2.0621755102\C,1.2366252523,-0.06648209
 55,-2.2990360233\C,6.2604460914,-1.470439039,3.8186392251\O,5.99449431
 3,-2.5653870901,1.2328179809\O,4.3013489049,0.5831942403,4.3790561476\
 O,4.8000979007,-2.6777286226,-1.0796835534\O,-0.8569873121,0.246469262
 9,-0.2322309983\C,-2.0123938744,-0.0993366096,-1.0122691125\C,-2.25206
 09046,-1.5821509253,-0.7241362188\C,-3.3776077152,-2.1199253617,-1.602
 285196\C,-4.5818171058,-1.2276566521,-1.5294019755\C,-4.532363579,0.05
 0101701,-1.1213493568\C,-3.2576516986,0.7262871507,-0.6512516252\O,-1.
 0993944111,-2.3706226695,-0.9926307676\O,-3.7573964976,-3.4324570038,-
 1.2126456468\C,-5.8142106037,0.8168185371,-1.1155268531\O,-5.642418499
 3,2.0699560901,-0.6267815623\O,-6.890194115,0.3958072024,-1.4901565448
 \C,-6.8310253887,2.8748957384,-0.5831137868\C,-0.7705353526,2.68064588
 27,-0.4135167572\O,-1.1926791992,2.8316209632,0.861784551\O,-0.9645846
 39,3.512639413,-1.2721883659\H,2.6054543976,1.1834623412,2.6127633647\
 H,1.6568397947,2.2766347267,0.4003441934\H,0.7473899506,1.1246875276,1
 .3650694735\H,1.1656244561,2.0999928081,-2.2282071508\H,-0.321188171,1
 .3760888021,-2.7816135685\H,0.5338340345,-0.9047837424,-2.3971234405\H
 ,1.7966976318,-0.0225314893,-3.240434105\H,6.8757408841,-2.2588850759,
 3.383556895\H,6.9333491881,-0.6463974223,4.0972381071\H,5.8204328438,-
 1.8718259887,4.7430740247\H,5.7806858412,-2.8530974744,0.3051592478\H,
 5.0247449778,0.2147490891,4.9099772534\H,-1.7906167157,0.0095896573,-2
 .0814868889\H,-2.5548402056,-1.6939940494,0.3287148728\H,-3.0075879979
 ,-2.1339334907,-2.6445447448\H,-5.5320688813,-1.6551435655,-1.83718999
 72\H,-3.1936150819,1.7281887307,-1.0870576772\H,-3.2852992586,0.867889
 2052,0.4367931631\H,-0.3881277558,-2.0043656703,-0.4408700089\H,-2.938
 1366832,-3.9554628119,-1.2118300349\H,-6.5187646442,3.8366342607,-0.17
 47193637\H,-7.2470189395,2.9993036854,-1.5863696408\H,-7.5854648896,2.
 4103339556,0.0572931034\H,-1.6559256057,3.6904124344,0.8964055144\\Ver
 sion=EM64L-G09RevB.01\State=1-A\HF=-1718.3727992\RMSD=5.863e-09\RMSF=5
 .041e-06\Dipole=0.4078123,1.8107237,1.3532727\Quadrupole=-11.0541659,0
 .6183715,10.4357945,-6.3223427,6.6831488,-0.8596331\PG=C01 [X(C23H24O1
 1)]\\@


 O WAD SOME POWER THE GIFTIE GIE US       
 TO SEE OURSELS AS OTHERS SEE US.....     
 IT WOULD FRAE MONIE A BLUNDER FREE US,   
                     AND FOOLISH NOTION...
 WHAT AIRS IN DRESS AND GAIT WAD LEA'E US,
                     AND EV'N DEVOTION....
                                          
              (ROBERT BURNS 'TO A LOUSE') 
 Job cpu time:  0 days  3 hours 58 minutes 53.2 seconds.
 File lengths (MBytes):  RWF=    201 Int=      0 D2E=      0 Chk=     21 Scr=      1
 Normal termination of Gaussian 09 at Tue Feb  2 11:57:57 2021.
