 Entering Gaussian System, Link 0=g09
 Initial command:
 /public/software/g09/g09/l1.exe /tmp/Gau-6913.inp -scrdir=/tmp/
 Entering Link 1 = /public/software/g09/g09/l1.exe PID=      6914.
  
 Copyright (c) 1988,1990,1992,1993,1995,1998,2003,2009,2010,
            Gaussian, Inc.  All Rights Reserved.
  
 This is part of the Gaussian(R) 09 program.  It is based on
 the Gaussian(R) 03 system (copyright 2003, Gaussian, Inc.),
 the Gaussian(R) 98 system (copyright 1998, Gaussian, Inc.),
 the Gaussian(R) 94 system (copyright 1995, Gaussian, Inc.),
 the Gaussian 92(TM) system (copyright 1992, Gaussian, Inc.),
 the Gaussian 90(TM) system (copyright 1990, Gaussian, Inc.),
 the Gaussian 88(TM) system (copyright 1988, Gaussian, Inc.),
 the Gaussian 86(TM) system (copyright 1986, Carnegie Mellon
 University), and the Gaussian 82(TM) system (copyright 1983,
 Carnegie Mellon University). Gaussian is a federally registered
 trademark of Gaussian, Inc.
  
 This software contains proprietary and confidential information,
 including trade secrets, belonging to Gaussian, Inc.
  
 This software is provided under written license and may be
 used, copied, transmitted, or stored only in accord with that
 written license.
  
 The following legend is applicable only to US Government
 contracts under FAR:
  
                    RESTRICTED RIGHTS LEGEND
  
 Use, reproduction and disclosure by the US Government is
 subject to restrictions as set forth in subparagraphs (a)
 and (c) of the Commercial Computer Software - Restricted
 Rights clause in FAR 52.227-19.
  
 Gaussian, Inc.
 340 Quinnipiac St., Bldg. 40, Wallingford CT 06492
  
  
 ---------------------------------------------------------------
 Warning -- This program may not be used in any manner that
 competes with the business of Gaussian, Inc. or will provide
 assistance to any competitor of Gaussian, Inc.  The licensee
 of this program is prohibited from giving any competitor of
 Gaussian, Inc. access to this program.  By using this program,
 the user acknowledges that Gaussian, Inc. is engaged in the
 business of creating and licensing software in the field of
 computational chemistry and represents and warrants to the
 licensee that it is not a competitor of Gaussian, Inc. and that
 it will not use this program in any manner prohibited above.
 ---------------------------------------------------------------
  

 Cite this work as:
 Gaussian 09, Revision B.01,
 M. J. Frisch, G. W. Trucks, H. B. Schlegel, G. E. Scuseria, 
 M. A. Robb, J. R. Cheeseman, G. Scalmani, V. Barone, B. Mennucci, 
 G. A. Petersson, H. Nakatsuji, M. Caricato, X. Li, H. P. Hratchian, 
 A. F. Izmaylov, J. Bloino, G. Zheng, J. L. Sonnenberg, M. Hada, 
 M. Ehara, K. Toyota, R. Fukuda, J. Hasegawa, M. Ishida, T. Nakajima, 
 Y. Honda, O. Kitao, H. Nakai, T. Vreven, J. A. Montgomery, Jr., 
 J. E. Peralta, F. Ogliaro, M. Bearpark, J. J. Heyd, E. Brothers, 
 K. N. Kudin, V. N. Staroverov, T. Keith, R. Kobayashi, J. Normand, 
 K. Raghavachari, A. Rendell, J. C. Burant, S. S. Iyengar, J. Tomasi, 
 M. Cossi, N. Rega, J. M. Millam, M. Klene, J. E. Knox, J. B. Cross, 
 V. Bakken, C. Adamo, J. Jaramillo, R. Gomperts, R. E. Stratmann, 
 O. Yazyev, A. J. Austin, R. Cammi, C. Pomelli, J. W. Ochterski, 
 R. L. Martin, K. Morokuma, V. G. Zakrzewski, G. A. Voth, 
 P. Salvador, J. J. Dannenberg, S. Dapprich, A. D. Daniels, 
 O. Farkas, J. B. Foresman, J. V. Ortiz, J. Cioslowski, 
 and D. J. Fox, Gaussian, Inc., Wallingford CT, 2010.
 
 ******************************************
 Gaussian 09:  EM64L-G09RevB.01 12-Aug-2010
                 2-Feb-2021 
 ******************************************
 %mem=600MW
 %nprocshared=10
 Will use up to   10 processors via shared memory.
 --------------------------------------
 # opt b3lyp/6-31g(d) geom=connectivity
 --------------------------------------
 1/14=-1,18=20,19=15,26=3,38=1,57=2/1,3;
 2/9=110,12=2,17=6,18=5,40=1/2;
 3/5=1,6=6,7=1,11=2,16=1,25=1,30=1,71=1,74=-5/1,2,3;
 4//1;
 5/5=2,38=5/2;
 6/7=2,8=2,9=2,10=2,28=1/1;
 7//1,2,3,16;
 1/14=-1,18=20,19=15/3(2);
 2/9=110/2;
 99//99;
 2/9=110/2;
 3/5=1,6=6,7=1,11=2,16=1,25=1,30=1,71=1,74=-5/1,2,3;
 4/5=5,16=3/1;
 5/5=2,38=5/2;
 7//1,2,3,16;
 1/14=-1,18=20,19=15/3(-5);
 2/9=110/2;
 6/7=2,8=2,9=2,10=2,19=2,28=1/1;
 99/9=1/99;
 -------------------
 Title Card Required
 -------------------
 Symbolic Z-matrix:
 Charge =  0 Multiplicity = 1
 C                     4.33766  -1.26071  -1.30066 
 C                     3.93741   0.01101  -0.88036 
 C                     2.65125   0.49419  -1.13322 
 C                     1.70504  -0.28474  -1.81223 
 C                     2.09433  -1.55681  -2.252 
 C                     3.39761  -2.03825  -1.99513 
 C                     0.33691   0.19312  -2.07652 
 C                    -0.47517  -0.59713  -2.79702 
 O                    -0.08939  -1.86456  -3.27193 
 C                     1.136    -2.39382  -3.00858 
 C                    -0.13662   1.52833  -1.54081 
 C                    -1.67845   1.70036  -1.54194 
 C                    -2.20957   1.24777  -2.91476 
 C                    -1.87979  -0.22297  -3.17989 
 C                     5.72357  -1.77399  -1.02318 
 O                     3.80803  -3.28163  -2.41564 
 O                     4.76264   0.86567  -0.20299 
 O                     1.45754  -3.51505  -3.39395 
 O                    -2.35318   0.87927  -0.56926 
 C                    -1.99219   1.03994   0.81353 
 C                    -3.29624   1.10963   1.62642 
 C                    -2.99539   1.21357   3.13124 
 C                    -1.94895   0.25397   3.59494 
 C                    -1.12314  -0.39434   2.75245 
 C                    -1.16747  -0.1814    1.26129 
 O                    -4.07151   2.25898   1.24431 
 O                    -4.18971   0.95221   3.86502 
 C                    -0.09463  -1.36789   3.22072 
 O                    -0.07185  -1.46167   4.57258 
 O                     0.63033  -1.98303   2.45225 
 C                     0.89279  -2.38656   5.07495 
 C                    -2.03661   3.18962  -1.37773 
 O                    -3.35852   3.39514  -1.17602 
 O                    -1.2687    4.1373   -1.40005 
 H                     2.41964   1.49747  -0.7857 
 H                     0.32785   2.30859  -2.15946 
 H                     0.23331   1.68045  -0.52264 
 H                    -1.78155   1.87296  -3.71008 
 H                    -3.29877   1.37051  -2.97158 
 H                    -2.57423  -0.86438  -2.62326 
 H                    -2.04017  -0.43168  -4.2444 
 H                     5.89762  -2.77924  -1.41712 
 H                     6.46644  -1.11424  -1.48379 
 H                     5.89744  -1.81639   0.0572 
 H                     3.06311  -3.73224  -2.87331 
 H                     5.61692   0.43528  -0.04023 
 H                    -1.43289   1.97201   0.962 
 H                    -3.93026   0.23909   1.4142 
 H                    -2.68504   2.23303   3.38974 
 H                    -1.89288   0.10111   4.67022 
 H                    -0.14741  -0.06843   0.87931 
 H                    -1.56675  -1.08747   0.78599 
 H                    -4.10615   2.24665   0.26414 
 H                    -4.86876   1.5262    3.46128 
 H                     0.82238  -2.39019   6.16618 
 H                     0.68181  -3.39709   4.71113 
 H                     1.90411  -2.07596   4.79427 
 H                    -3.4398    4.36847  -1.0699 
 

 GradGradGradGradGradGradGradGradGradGradGradGradGradGradGradGradGradGrad
 Berny optimization.
 Initialization pass.
                           ----------------------------
                           !    Initial Parameters    !
                           ! (Angstroms and Degrees)  !
 --------------------------                            --------------------------
 ! Name  Definition              Value          Derivative Info.                !
 --------------------------------------------------------------------------------
 ! R1    R(1,2)                  1.3979         estimate D2E/DX2                !
 ! R2    R(1,6)                  1.4038         estimate D2E/DX2                !
 ! R3    R(1,15)                 1.5037         estimate D2E/DX2                !
 ! R4    R(2,3)                  1.397          estimate D2E/DX2                !
 ! R5    R(2,17)                 1.3676         estimate D2E/DX2                !
 ! R6    R(3,4)                  1.4011         estimate D2E/DX2                !
 ! R7    R(3,35)                 1.0867         estimate D2E/DX2                !
 ! R8    R(4,5)                  1.4011         estimate D2E/DX2                !
 ! R9    R(4,7)                  1.4731         estimate D2E/DX2                !
 ! R10   R(5,6)                  1.4129         estimate D2E/DX2                !
 ! R11   R(5,10)                 1.4803         estimate D2E/DX2                !
 ! R12   R(6,16)                 1.3752         estimate D2E/DX2                !
 ! R13   R(7,8)                  1.3428         estimate D2E/DX2                !
 ! R14   R(7,11)                 1.5146         estimate D2E/DX2                !
 ! R15   R(8,9)                  1.4074         estimate D2E/DX2                !
 ! R16   R(8,14)                 1.5032         estimate D2E/DX2                !
 ! R17   R(9,10)                 1.3605         estimate D2E/DX2                !
 ! R18   R(10,18)                1.2284         estimate D2E/DX2                !
 ! R19   R(11,12)                1.5514         estimate D2E/DX2                !
 ! R20   R(11,36)                1.0988         estimate D2E/DX2                !
 ! R21   R(11,37)                1.0939         estimate D2E/DX2                !
 ! R22   R(12,13)                1.54           estimate D2E/DX2                !
 ! R23   R(12,19)                1.4407         estimate D2E/DX2                !
 ! R24   R(12,32)                1.5405         estimate D2E/DX2                !
 ! R25   R(13,14)                1.5304         estimate D2E/DX2                !
 ! R26   R(13,38)                1.0985         estimate D2E/DX2                !
 ! R27   R(13,39)                1.0976         estimate D2E/DX2                !
 ! R28   R(14,40)                1.097          estimate D2E/DX2                !
 ! R29   R(14,41)                1.0966         estimate D2E/DX2                !
 ! R30   R(15,42)                1.0936         estimate D2E/DX2                !
 ! R31   R(15,43)                1.0951         estimate D2E/DX2                !
 ! R32   R(15,44)                1.0951         estimate D2E/DX2                !
 ! R33   R(16,45)                0.9836         estimate D2E/DX2                !
 ! R34   R(17,46)                0.9703         estimate D2E/DX2                !
 ! R35   R(18,45)                1.7018         estimate D2E/DX2                !
 ! R36   R(19,20)                1.4381         estimate D2E/DX2                !
 ! R37   R(20,21)                1.5382         estimate D2E/DX2                !
 ! R38   R(20,25)                1.5402         estimate D2E/DX2                !
 ! R39   R(20,47)                1.0971         estimate D2E/DX2                !
 ! R40   R(21,22)                1.5381         estimate D2E/DX2                !
 ! R41   R(21,26)                1.4381         estimate D2E/DX2                !
 ! R42   R(21,48)                1.0977         estimate D2E/DX2                !
 ! R43   R(22,23)                1.4936         estimate D2E/DX2                !
 ! R44   R(22,27)                1.4259         estimate D2E/DX2                !
 ! R45   R(22,49)                1.0966         estimate D2E/DX2                !
 ! R46   R(23,24)                1.3461         estimate D2E/DX2                !
 ! R47   R(23,50)                1.0875         estimate D2E/DX2                !
 ! R48   R(24,25)                1.5069         estimate D2E/DX2                !
 ! R49   R(24,28)                1.4916         estimate D2E/DX2                !
 ! R50   R(25,51)                1.0951         estimate D2E/DX2                !
 ! R51   R(25,52)                1.0983         estimate D2E/DX2                !
 ! R52   R(26,53)                0.9809         estimate D2E/DX2                !
 ! R53   R(27,54)                0.9765         estimate D2E/DX2                !
 ! R54   R(28,29)                1.3553         estimate D2E/DX2                !
 ! R55   R(28,30)                1.2225         estimate D2E/DX2                !
 ! R56   R(29,31)                1.4277         estimate D2E/DX2                !
 ! R57   R(31,55)                1.0935         estimate D2E/DX2                !
 ! R58   R(31,56)                1.0946         estimate D2E/DX2                !
 ! R59   R(31,57)                1.0945         estimate D2E/DX2                !
 ! R60   R(32,33)                1.3529         estimate D2E/DX2                !
 ! R61   R(32,34)                1.22           estimate D2E/DX2                !
 ! R62   R(33,58)                0.9825         estimate D2E/DX2                !
 ! A1    A(2,1,6)              117.4457         estimate D2E/DX2                !
 ! A2    A(2,1,15)             121.261          estimate D2E/DX2                !
 ! A3    A(6,1,15)             121.2931         estimate D2E/DX2                !
 ! A4    A(1,2,3)              121.5901         estimate D2E/DX2                !
 ! A5    A(1,2,17)             123.0027         estimate D2E/DX2                !
 ! A6    A(3,2,17)             115.4071         estimate D2E/DX2                !
 ! A7    A(2,3,4)              121.1434         estimate D2E/DX2                !
 ! A8    A(2,3,35)             117.2354         estimate D2E/DX2                !
 ! A9    A(4,3,35)             121.6207         estimate D2E/DX2                !
 ! A10   A(3,4,5)              117.983          estimate D2E/DX2                !
 ! A11   A(3,4,7)              122.2639         estimate D2E/DX2                !
 ! A12   A(5,4,7)              119.7525         estimate D2E/DX2                !
 ! A13   A(4,5,6)              120.57           estimate D2E/DX2                !
 ! A14   A(4,5,10)             119.5965         estimate D2E/DX2                !
 ! A15   A(6,5,10)             119.8279         estimate D2E/DX2                !
 ! A16   A(1,6,5)              121.2588         estimate D2E/DX2                !
 ! A17   A(1,6,16)             116.886          estimate D2E/DX2                !
 ! A18   A(5,6,16)             121.8545         estimate D2E/DX2                !
 ! A19   A(4,7,8)              117.8425         estimate D2E/DX2                !
 ! A20   A(4,7,11)             120.8561         estimate D2E/DX2                !
 ! A21   A(8,7,11)             121.2996         estimate D2E/DX2                !
 ! A22   A(7,8,9)              123.0431         estimate D2E/DX2                !
 ! A23   A(7,8,14)             123.7316         estimate D2E/DX2                !
 ! A24   A(9,8,14)             113.2252         estimate D2E/DX2                !
 ! A25   A(8,9,10)             122.1333         estimate D2E/DX2                !
 ! A26   A(5,10,9)             117.5192         estimate D2E/DX2                !
 ! A27   A(5,10,18)            120.4613         estimate D2E/DX2                !
 ! A28   A(9,10,18)            122.0112         estimate D2E/DX2                !
 ! A29   A(7,11,12)            114.0928         estimate D2E/DX2                !
 ! A30   A(7,11,36)            107.1404         estimate D2E/DX2                !
 ! A31   A(7,11,37)            110.2473         estimate D2E/DX2                !
 ! A32   A(12,11,36)           109.9349         estimate D2E/DX2                !
 ! A33   A(12,11,37)           108.7442         estimate D2E/DX2                !
 ! A34   A(36,11,37)           106.4007         estimate D2E/DX2                !
 ! A35   A(11,12,13)           108.1086         estimate D2E/DX2                !
 ! A36   A(11,12,19)           113.6877         estimate D2E/DX2                !
 ! A37   A(11,12,32)           109.7663         estimate D2E/DX2                !
 ! A38   A(13,12,19)           105.8333         estimate D2E/DX2                !
 ! A39   A(13,12,32)           107.3955         estimate D2E/DX2                !
 ! A40   A(19,12,32)           111.7234         estimate D2E/DX2                !
 ! A41   A(12,13,14)           111.2574         estimate D2E/DX2                !
 ! A42   A(12,13,38)           110.1072         estimate D2E/DX2                !
 ! A43   A(12,13,39)           110.8262         estimate D2E/DX2                !
 ! A44   A(14,13,38)           109.7285         estimate D2E/DX2                !
 ! A45   A(14,13,39)           108.2012         estimate D2E/DX2                !
 ! A46   A(38,13,39)           106.5922         estimate D2E/DX2                !
 ! A47   A(8,14,13)            113.3559         estimate D2E/DX2                !
 ! A48   A(8,14,40)            108.4659         estimate D2E/DX2                !
 ! A49   A(8,14,41)            109.6673         estimate D2E/DX2                !
 ! A50   A(13,14,40)           109.7286         estimate D2E/DX2                !
 ! A51   A(13,14,41)           108.637          estimate D2E/DX2                !
 ! A52   A(40,14,41)           106.7802         estimate D2E/DX2                !
 ! A53   A(1,15,42)            113.2018         estimate D2E/DX2                !
 ! A54   A(1,15,43)            109.9955         estimate D2E/DX2                !
 ! A55   A(1,15,44)            109.9742         estimate D2E/DX2                !
 ! A56   A(42,15,43)           107.1153         estimate D2E/DX2                !
 ! A57   A(42,15,44)           107.1282         estimate D2E/DX2                !
 ! A58   A(43,15,44)           109.3034         estimate D2E/DX2                !
 ! A59   A(6,16,45)            109.2976         estimate D2E/DX2                !
 ! A60   A(2,17,46)            109.7032         estimate D2E/DX2                !
 ! A61   A(12,19,20)           117.9007         estimate D2E/DX2                !
 ! A62   A(19,20,21)           107.4805         estimate D2E/DX2                !
 ! A63   A(19,20,25)           108.9862         estimate D2E/DX2                !
 ! A64   A(19,20,47)           110.6712         estimate D2E/DX2                !
 ! A65   A(21,20,25)           109.6472         estimate D2E/DX2                !
 ! A66   A(21,20,47)           108.7944         estimate D2E/DX2                !
 ! A67   A(25,20,47)           111.1843         estimate D2E/DX2                !
 ! A68   A(20,21,22)           110.7478         estimate D2E/DX2                !
 ! A69   A(20,21,26)           110.6601         estimate D2E/DX2                !
 ! A70   A(20,21,48)           110.5834         estimate D2E/DX2                !
 ! A71   A(22,21,26)           108.1433         estimate D2E/DX2                !
 ! A72   A(22,21,48)           110.8376         estimate D2E/DX2                !
 ! A73   A(26,21,48)           105.7297         estimate D2E/DX2                !
 ! A74   A(21,22,23)           113.4129         estimate D2E/DX2                !
 ! A75   A(21,22,27)           109.1023         estimate D2E/DX2                !
 ! A76   A(21,22,49)           110.4151         estimate D2E/DX2                !
 ! A77   A(23,22,27)           108.0171         estimate D2E/DX2                !
 ! A78   A(23,22,49)           109.0159         estimate D2E/DX2                !
 ! A79   A(27,22,49)           106.6277         estimate D2E/DX2                !
 ! A80   A(22,23,24)           123.0192         estimate D2E/DX2                !
 ! A81   A(22,23,50)           115.6819         estimate D2E/DX2                !
 ! A82   A(24,23,50)           121.2983         estimate D2E/DX2                !
 ! A83   A(23,24,25)           122.2225         estimate D2E/DX2                !
 ! A84   A(23,24,28)           122.7421         estimate D2E/DX2                !
 ! A85   A(25,24,28)           115.0346         estimate D2E/DX2                !
 ! A86   A(20,25,24)           114.5491         estimate D2E/DX2                !
 ! A87   A(20,25,51)           108.3948         estimate D2E/DX2                !
 ! A88   A(20,25,52)           109.4931         estimate D2E/DX2                !
 ! A89   A(24,25,51)           109.411          estimate D2E/DX2                !
 ! A90   A(24,25,52)           108.8048         estimate D2E/DX2                !
 ! A91   A(51,25,52)           105.8299         estimate D2E/DX2                !
 ! A92   A(21,26,53)           105.9328         estimate D2E/DX2                !
 ! A93   A(22,27,54)           105.1855         estimate D2E/DX2                !
 ! A94   A(24,28,29)           111.7091         estimate D2E/DX2                !
 ! A95   A(24,28,30)           122.6816         estimate D2E/DX2                !
 ! A96   A(29,28,30)           125.6073         estimate D2E/DX2                !
 ! A97   A(28,29,31)           114.0265         estimate D2E/DX2                !
 ! A98   A(29,31,55)           108.0464         estimate D2E/DX2                !
 ! A99   A(29,31,56)           110.5417         estimate D2E/DX2                !
 ! A100  A(29,31,57)           110.5012         estimate D2E/DX2                !
 ! A101  A(55,31,56)           108.4345         estimate D2E/DX2                !
 ! A102  A(55,31,57)           108.4415         estimate D2E/DX2                !
 ! A103  A(56,31,57)           110.7843         estimate D2E/DX2                !
 ! A104  A(12,32,33)           112.9489         estimate D2E/DX2                !
 ! A105  A(12,32,34)           127.0624         estimate D2E/DX2                !
 ! A106  A(33,32,34)           119.9843         estimate D2E/DX2                !
 ! A107  A(32,33,58)           104.3251         estimate D2E/DX2                !
 ! D1    D(6,1,2,3)              0.2593         estimate D2E/DX2                !
 ! D2    D(6,1,2,17)          -179.6048         estimate D2E/DX2                !
 ! D3    D(15,1,2,3)          -179.9329         estimate D2E/DX2                !
 ! D4    D(15,1,2,17)            0.2031         estimate D2E/DX2                !
 ! D5    D(2,1,6,5)             -0.3816         estimate D2E/DX2                !
 ! D6    D(2,1,6,16)           179.3282         estimate D2E/DX2                !
 ! D7    D(15,1,6,5)           179.8106         estimate D2E/DX2                !
 ! D8    D(15,1,6,16)           -0.4796         estimate D2E/DX2                !
 ! D9    D(2,1,15,42)         -179.5196         estimate D2E/DX2                !
 ! D10   D(2,1,15,43)          -59.7374         estimate D2E/DX2                !
 ! D11   D(2,1,15,44)           60.6967         estimate D2E/DX2                !
 ! D12   D(6,1,15,42)            0.2808         estimate D2E/DX2                !
 ! D13   D(6,1,15,43)          120.063          estimate D2E/DX2                !
 ! D14   D(6,1,15,44)         -119.5029         estimate D2E/DX2                !
 ! D15   D(1,2,3,4)              0.4892         estimate D2E/DX2                !
 ! D16   D(1,2,3,35)          -179.2451         estimate D2E/DX2                !
 ! D17   D(17,2,3,4)          -179.637          estimate D2E/DX2                !
 ! D18   D(17,2,3,35)            0.6287         estimate D2E/DX2                !
 ! D19   D(1,2,17,46)           -2.4822         estimate D2E/DX2                !
 ! D20   D(3,2,17,46)          177.646          estimate D2E/DX2                !
 ! D21   D(2,3,4,5)             -1.0912         estimate D2E/DX2                !
 ! D22   D(2,3,4,7)            179.1841         estimate D2E/DX2                !
 ! D23   D(35,3,4,5)           178.6313         estimate D2E/DX2                !
 ! D24   D(35,3,4,7)            -1.0934         estimate D2E/DX2                !
 ! D25   D(3,4,5,6)              0.9627         estimate D2E/DX2                !
 ! D26   D(3,4,5,10)          -178.1754         estimate D2E/DX2                !
 ! D27   D(7,4,5,6)           -179.3054         estimate D2E/DX2                !
 ! D28   D(7,4,5,10)             1.5565         estimate D2E/DX2                !
 ! D29   D(3,4,7,8)            176.5026         estimate D2E/DX2                !
 ! D30   D(3,4,7,11)            -3.9873         estimate D2E/DX2                !
 ! D31   D(5,4,7,8)             -3.2174         estimate D2E/DX2                !
 ! D32   D(5,4,7,11)           176.2927         estimate D2E/DX2                !
 ! D33   D(4,5,6,1)             -0.2369         estimate D2E/DX2                !
 ! D34   D(4,5,6,16)          -179.9322         estimate D2E/DX2                !
 ! D35   D(10,5,6,1)           178.8992         estimate D2E/DX2                !
 ! D36   D(10,5,6,16)           -0.7961         estimate D2E/DX2                !
 ! D37   D(4,5,10,9)             1.5147         estimate D2E/DX2                !
 ! D38   D(4,5,10,18)         -179.5098         estimate D2E/DX2                !
 ! D39   D(6,5,10,9)          -177.6299         estimate D2E/DX2                !
 ! D40   D(6,5,10,18)            1.3456         estimate D2E/DX2                !
 ! D41   D(1,6,16,45)          179.0958         estimate D2E/DX2                !
 ! D42   D(5,6,16,45)           -1.1963         estimate D2E/DX2                !
 ! D43   D(4,7,8,9)              1.8371         estimate D2E/DX2                !
 ! D44   D(4,7,8,14)          -178.0586         estimate D2E/DX2                !
 ! D45   D(11,7,8,9)          -177.6707         estimate D2E/DX2                !
 ! D46   D(11,7,8,14)            2.4336         estimate D2E/DX2                !
 ! D47   D(4,7,11,12)         -163.0822         estimate D2E/DX2                !
 ! D48   D(4,7,11,36)           74.9961         estimate D2E/DX2                !
 ! D49   D(4,7,11,37)          -40.389          estimate D2E/DX2                !
 ! D50   D(8,7,11,12)           16.4109         estimate D2E/DX2                !
 ! D51   D(8,7,11,36)         -105.5108         estimate D2E/DX2                !
 ! D52   D(8,7,11,37)          139.1041         estimate D2E/DX2                !
 ! D53   D(7,8,9,10)             1.3647         estimate D2E/DX2                !
 ! D54   D(14,8,9,10)         -178.7297         estimate D2E/DX2                !
 ! D55   D(7,8,14,13)           11.4348         estimate D2E/DX2                !
 ! D56   D(7,8,14,40)         -110.696          estimate D2E/DX2                !
 ! D57   D(7,8,14,41)          133.0355         estimate D2E/DX2                !
 ! D58   D(9,8,14,13)         -168.4701         estimate D2E/DX2                !
 ! D59   D(9,8,14,40)           69.3991         estimate D2E/DX2                !
 ! D60   D(9,8,14,41)          -46.8694         estimate D2E/DX2                !
 ! D61   D(8,9,10,5)            -3.0248         estimate D2E/DX2                !
 ! D62   D(8,9,10,18)          178.0166         estimate D2E/DX2                !
 ! D63   D(7,11,12,13)         -46.8464         estimate D2E/DX2                !
 ! D64   D(7,11,12,19)          70.343          estimate D2E/DX2                !
 ! D65   D(7,11,12,32)        -163.7027         estimate D2E/DX2                !
 ! D66   D(36,11,12,13)         73.5246         estimate D2E/DX2                !
 ! D67   D(36,11,12,19)       -169.286          estimate D2E/DX2                !
 ! D68   D(36,11,12,32)        -43.3317         estimate D2E/DX2                !
 ! D69   D(37,11,12,13)       -170.3559         estimate D2E/DX2                !
 ! D70   D(37,11,12,19)        -53.1665         estimate D2E/DX2                !
 ! D71   D(37,11,12,32)         72.7878         estimate D2E/DX2                !
 ! D72   D(11,12,13,14)         60.7149         estimate D2E/DX2                !
 ! D73   D(11,12,13,38)        -61.1647         estimate D2E/DX2                !
 ! D74   D(11,12,13,39)       -178.8495         estimate D2E/DX2                !
 ! D75   D(19,12,13,14)        -61.4324         estimate D2E/DX2                !
 ! D76   D(19,12,13,38)        176.688          estimate D2E/DX2                !
 ! D77   D(19,12,13,39)         59.0032         estimate D2E/DX2                !
 ! D78   D(32,12,13,14)        179.0947         estimate D2E/DX2                !
 ! D79   D(32,12,13,38)         57.2151         estimate D2E/DX2                !
 ! D80   D(32,12,13,39)        -60.4697         estimate D2E/DX2                !
 ! D81   D(11,12,19,20)         58.2579         estimate D2E/DX2                !
 ! D82   D(13,12,19,20)        176.7618         estimate D2E/DX2                !
 ! D83   D(32,12,19,20)        -66.6545         estimate D2E/DX2                !
 ! D84   D(11,12,32,33)       -171.0029         estimate D2E/DX2                !
 ! D85   D(11,12,32,34)          8.2237         estimate D2E/DX2                !
 ! D86   D(13,12,32,33)         71.6943         estimate D2E/DX2                !
 ! D87   D(13,12,32,34)       -109.0791         estimate D2E/DX2                !
 ! D88   D(19,12,32,33)        -43.9382         estimate D2E/DX2                !
 ! D89   D(19,12,32,34)        135.2884         estimate D2E/DX2                !
 ! D90   D(12,13,14,8)         -43.5694         estimate D2E/DX2                !
 ! D91   D(12,13,14,40)         77.8556         estimate D2E/DX2                !
 ! D92   D(12,13,14,41)       -165.7452         estimate D2E/DX2                !
 ! D93   D(38,13,14,8)          78.53           estimate D2E/DX2                !
 ! D94   D(38,13,14,40)       -160.045          estimate D2E/DX2                !
 ! D95   D(38,13,14,41)        -43.6459         estimate D2E/DX2                !
 ! D96   D(39,13,14,8)        -165.541          estimate D2E/DX2                !
 ! D97   D(39,13,14,40)        -44.116          estimate D2E/DX2                !
 ! D98   D(39,13,14,41)         72.2831         estimate D2E/DX2                !
 ! D99   D(12,19,20,21)        134.1775         estimate D2E/DX2                !
 ! D100  D(12,19,20,25)       -107.0626         estimate D2E/DX2                !
 ! D101  D(12,19,20,47)         15.503          estimate D2E/DX2                !
 ! D102  D(19,20,21,22)        177.2517         estimate D2E/DX2                !
 ! D103  D(19,20,21,26)        -62.833          estimate D2E/DX2                !
 ! D104  D(19,20,21,48)         53.9812         estimate D2E/DX2                !
 ! D105  D(25,20,21,22)         58.9178         estimate D2E/DX2                !
 ! D106  D(25,20,21,26)        178.8331         estimate D2E/DX2                !
 ! D107  D(25,20,21,48)        -64.3528         estimate D2E/DX2                !
 ! D108  D(47,20,21,22)        -62.8728         estimate D2E/DX2                !
 ! D109  D(47,20,21,26)         57.0425         estimate D2E/DX2                !
 ! D110  D(47,20,21,48)        173.8566         estimate D2E/DX2                !
 ! D111  D(19,20,25,24)       -159.9273         estimate D2E/DX2                !
 ! D112  D(19,20,25,51)         77.5971         estimate D2E/DX2                !
 ! D113  D(19,20,25,52)        -37.406          estimate D2E/DX2                !
 ! D114  D(21,20,25,24)        -42.5315         estimate D2E/DX2                !
 ! D115  D(21,20,25,51)       -165.0071         estimate D2E/DX2                !
 ! D116  D(21,20,25,52)         79.9897         estimate D2E/DX2                !
 ! D117  D(47,20,25,24)         77.8161         estimate D2E/DX2                !
 ! D118  D(47,20,25,51)        -44.6595         estimate D2E/DX2                !
 ! D119  D(47,20,25,52)       -159.6627         estimate D2E/DX2                !
 ! D120  D(20,21,22,23)        -45.6619         estimate D2E/DX2                !
 ! D121  D(20,21,22,27)       -166.1031         estimate D2E/DX2                !
 ! D122  D(20,21,22,49)         77.0234         estimate D2E/DX2                !
 ! D123  D(26,21,22,23)       -167.0725         estimate D2E/DX2                !
 ! D124  D(26,21,22,27)         72.4864         estimate D2E/DX2                !
 ! D125  D(26,21,22,49)        -44.3871         estimate D2E/DX2                !
 ! D126  D(48,21,22,23)         77.4617         estimate D2E/DX2                !
 ! D127  D(48,21,22,27)        -42.9794         estimate D2E/DX2                !
 ! D128  D(48,21,22,49)       -159.8529         estimate D2E/DX2                !
 ! D129  D(20,21,26,53)         48.5532         estimate D2E/DX2                !
 ! D130  D(22,21,26,53)        170.0179         estimate D2E/DX2                !
 ! D131  D(48,21,26,53)        -71.2191         estimate D2E/DX2                !
 ! D132  D(21,22,23,24)         15.5202         estimate D2E/DX2                !
 ! D133  D(21,22,23,50)       -164.1854         estimate D2E/DX2                !
 ! D134  D(27,22,23,24)        136.5739         estimate D2E/DX2                !
 ! D135  D(27,22,23,50)        -43.1317         estimate D2E/DX2                !
 ! D136  D(49,22,23,24)       -107.9352         estimate D2E/DX2                !
 ! D137  D(49,22,23,50)         72.3592         estimate D2E/DX2                !
 ! D138  D(21,22,27,54)        -49.9726         estimate D2E/DX2                !
 ! D139  D(23,22,27,54)       -173.6719         estimate D2E/DX2                !
 ! D140  D(49,22,27,54)         69.2813         estimate D2E/DX2                !
 ! D141  D(22,23,24,25)          1.3346         estimate D2E/DX2                !
 ! D142  D(22,23,24,28)       -178.9976         estimate D2E/DX2                !
 ! D143  D(50,23,24,25)       -178.976          estimate D2E/DX2                !
 ! D144  D(50,23,24,28)          0.6919         estimate D2E/DX2                !
 ! D145  D(23,24,25,20)         12.9423         estimate D2E/DX2                !
 ! D146  D(23,24,25,51)        134.8653         estimate D2E/DX2                !
 ! D147  D(23,24,25,52)       -109.9511         estimate D2E/DX2                !
 ! D148  D(28,24,25,20)       -166.7494         estimate D2E/DX2                !
 ! D149  D(28,24,25,51)        -44.8264         estimate D2E/DX2                !
 ! D150  D(28,24,25,52)         70.3572         estimate D2E/DX2                !
 ! D151  D(23,24,28,29)         -2.5208         estimate D2E/DX2                !
 ! D152  D(23,24,28,30)        177.9682         estimate D2E/DX2                !
 ! D153  D(25,24,28,29)        177.1691         estimate D2E/DX2                !
 ! D154  D(25,24,28,30)         -2.3419         estimate D2E/DX2                !
 ! D155  D(24,28,29,31)        179.7293         estimate D2E/DX2                !
 ! D156  D(30,28,29,31)         -0.7769         estimate D2E/DX2                !
 ! D157  D(28,29,31,55)       -179.5729         estimate D2E/DX2                !
 ! D158  D(28,29,31,56)        -61.0669         estimate D2E/DX2                !
 ! D159  D(28,29,31,57)         61.9358         estimate D2E/DX2                !
 ! D160  D(12,32,33,58)        178.7934         estimate D2E/DX2                !
 ! D161  D(34,32,33,58)         -0.4941         estimate D2E/DX2                !
 --------------------------------------------------------------------------------
 Trust Radius=3.00D-01 FncErr=1.00D-07 GrdErr=1.00D-06
 Number of steps in this run=    340 maximum allowed number of steps=    348.
 GradGradGradGradGradGradGradGradGradGradGradGradGradGradGradGradGradGrad

 Stoichiometry    C23H24O11
 Framework group  C1[X(C23H24O11)]
 Deg. of freedom   168
 Full point group                 C1      NOp   1
 Largest Abelian subgroup         C1      NOp   1
 Largest concise Abelian subgroup C1      NOp   1
                         Standard orientation:                         
 ---------------------------------------------------------------------
 Center     Atomic      Atomic             Coordinates (Angstroms)
 Number     Number       Type             X           Y           Z
 ---------------------------------------------------------------------
      1          6           0       -4.495196    0.761888    1.042772
      2          6           0       -3.480804    0.510702    1.971229
      3          6           0       -2.372539   -0.276489    1.649229
      4          6           0       -2.229197   -0.839040    0.374044
      5          6           0       -3.243692   -0.607898   -0.564295
      6          6           0       -4.363168    0.187131   -0.231110
      7          6           0       -1.062561   -1.658121    0.002510
      8          6           0       -1.049698   -2.213079   -1.220169
      9          8           0       -2.075300   -2.015411   -2.163476
     10          6           0       -3.148521   -1.218755   -1.909364
     11          6           0        0.087488   -1.855173    0.968195
     12          6           0        1.389661   -2.375514    0.304531
     13          6           0        1.019235   -3.549453   -0.620784
     14          6           0        0.051743   -3.105399   -1.720286
     15          6           0       -5.684232    1.611603    1.396853
     16          8           0       -5.374525    0.429964   -1.130802
     17          8           0       -3.497932    1.006594    3.245621
     18          8           0       -4.024417   -1.019372   -2.747282
     19          8           0        2.039692   -1.402541   -0.535909
     20          6           0        2.434755   -0.154921    0.060422
     21          6           0        3.870984    0.144051   -0.402239
     22          6           0        4.346370    1.502715    0.139839
     23          6           0        3.335212    2.590822   -0.016619
     24          6           0        2.038582    2.353539   -0.289546
     25          6           0        1.489921    0.957295   -0.432097
     26          8           0        4.777073   -0.868146    0.069482
     27          8           0        5.527692    1.895112   -0.555611
     28          6           0        1.038289    3.445867   -0.466034
     29          8           0        1.589091    4.667535   -0.263599
     30          8           0       -0.131235    3.230497   -0.749500
     31          6           0        0.674556    5.751721   -0.426365
     32          6           0        2.341959   -2.923109    1.384527
     33          8           0        3.572358   -3.215418    0.903842
     34          8           0        2.093879   -3.090353    2.567221
     35          1           0       -1.632497   -0.436117    2.428863
     36          1           0       -0.251674   -2.565152    1.735116
     37          1           0        0.308461   -0.919328    1.489762
     38          1           0        0.568376   -4.363071   -0.036535
     39          1           0        1.914490   -3.966331   -1.099727
     40          1           0        0.602389   -2.571455   -2.504630
     41          1           0       -0.380258   -3.997979   -2.188404
     42          1           0       -6.399805    1.714688    0.576285
     43          1           0       -6.223283    1.168319    2.240774
     44          1           0       -5.355721    2.620742    1.666993
     45          1           0       -5.162560   -0.009866   -1.984637
     46          1           0       -4.279883    1.567987    3.367724
     47          1           0        2.424077   -0.228304    1.155003
     48          1           0        3.937350    0.115794   -1.497532
     49          1           0        4.619069    1.417914    1.198556
     50          1           0        3.711841    3.604449    0.099350
     51          1           0        0.546898    0.878799    0.119038
     52          1           0        1.236254    0.782504   -1.486326
     53          1           0        4.360293   -1.727632   -0.153362
     54          1           0        6.118364    1.118563   -0.514881
     55          1           0        1.218897    6.683501   -0.249640
     56          1           0        0.278625    5.770334   -1.446640
     57          1           0       -0.137481    5.681217    0.304150
     58          1           0        4.071888   -3.529592    1.689346
 ---------------------------------------------------------------------
 Rotational constants (GHZ):      0.1452862      0.0905738      0.0687091
 Standard basis: 6-31G(d) (6D, 7F)
 There are   558 symmetry adapted basis functions of A   symmetry.
 Integral buffers will be    131072 words long.
 Raffenetti 2 integral format.
 Two-electron integral symmetry is turned on.
   558 basis functions,  1048 primitive gaussians,   558 cartesian basis functions
   125 alpha electrons      125 beta electrons
       nuclear repulsion energy      3781.5355330425 Hartrees.
 NAtoms=   58 NActive=   58 NUniq=   58 SFac= 1.00D+00 NAtFMM=   50 NAOKFM=T Big=T
 One-electron integrals computed using PRISM.
 NBasis=   558 RedAO= T  NBF=   558
 NBsUse=   558 1.00D-06 NBFU=   558
 Harris functional with IExCor=  402 diagonalized for initial guess.
 ExpMin= 1.61D-01 ExpMax= 5.48D+03 ExpMxC= 8.25D+02 IAcc=1 IRadAn=         1 AccDes= 0.00D+00
 HarFok:  IExCor=  402 AccDes= 0.00D+00 IRadAn=         1 IDoV= 1
 ScaDFX=  1.000000  1.000000  1.000000  1.000000
 FoFCou: FMM=F IPFlag=           0 FMFlag=      100000 FMFlg1=        2001
         NFxFlg=           0 DoJE=T BraDBF=F KetDBF=T FulRan=T
         Omega=  0.000000  0.000000  1.000000  0.000000  0.000000 ICntrl=     500 IOpCl=  0
         NMat0=    1 NMatS0=    1 NMatT0=    0 NMatD0=    1 NMtDS0=    0 NMtDT0=    0
         I1Cent=           4 NGrid=           0.
 Petite list used in FoFCou.
 Initial guess orbital symmetries:
       Occupied  (A) (A) (A) (A) (A) (A) (A) (A) (A) (A) (A) (A)
                 (A) (A) (A) (A) (A) (A) (A) (A) (A) (A) (A) (A)
                 (A) (A) (A) (A) (A) (A) (A) (A) (A) (A) (A) (A)
                 (A) (A) (A) (A) (A) (A) (A) (A) (A) (A) (A) (A)
                 (A) (A) (A) (A) (A) (A) (A) (A) (A) (A) (A) (A)
                 (A) (A) (A) (A) (A) (A) (A) (A) (A) (A) (A) (A)
                 (A) (A) (A) (A) (A) (A) (A) (A) (A) (A) (A) (A)
                 (A) (A) (A) (A) (A) (A) (A) (A) (A) (A) (A) (A)
                 (A) (A) (A) (A) (A) (A) (A) (A) (A) (A) (A) (A)
                 (A) (A) (A) (A) (A) (A) (A) (A) (A) (A) (A) (A)
                 (A) (A) (A) (A) (A)
       Virtual   (A) (A) (A) (A) (A) (A) (A) (A) (A) (A) (A) (A)
                 (A) (A) (A) (A) (A) (A) (A) (A) (A) (A) (A) (A)
                 (A) (A) (A) (A) (A) (A) (A) (A) (A) (A) (A) (A)
                 (A) (A) (A) (A) (A) (A) (A) (A) (A) (A) (A) (A)
                 (A) (A) (A) (A) (A) (A) (A) (A) (A) (A) (A) (A)
                 (A) (A) (A) (A) (A) (A) (A) (A) (A) (A) (A) (A)
                 (A) (A) (A) (A) (A) (A) (A) (A) (A) (A) (A) (A)
                 (A) (A) (A) (A) (A) (A) (A) (A) (A) (A) (A) (A)
                 (A) (A) (A) (A) (A) (A) (A) (A) (A) (A) (A) (A)
                 (A) (A) (A) (A) (A) (A) (A) (A) (A) (A) (A) (A)
                 (A) (A) (A) (A) (A) (A) (A) (A) (A) (A) (A) (A)
                 (A) (A) (A) (A) (A) (A) (A) (A) (A) (A) (A) (A)
                 (A) (A) (A) (A) (A) (A) (A) (A) (A) (A) (A) (A)
                 (A) (A) (A) (A) (A) (A) (A) (A) (A) (A) (A) (A)
                 (A) (A) (A) (A) (A) (A) (A) (A) (A) (A) (A) (A)
                 (A) (A) (A) (A) (A) (A) (A) (A) (A) (A) (A) (A)
                 (A) (A) (A) (A) (A) (A) (A) (A) (A) (A) (A) (A)
                 (A) (A) (A) (A) (A) (A) (A) (A) (A) (A) (A) (A)
                 (A) (A) (A) (A) (A) (A) (A) (A) (A) (A) (A) (A)
                 (A) (A) (A) (A) (A) (A) (A) (A) (A) (A) (A) (A)
                 (A) (A) (A) (A) (A) (A) (A) (A) (A) (A) (A) (A)
                 (A) (A) (A) (A) (A) (A) (A) (A) (A) (A) (A) (A)
                 (A) (A) (A) (A) (A) (A) (A) (A) (A) (A) (A) (A)
                 (A) (A) (A) (A) (A) (A) (A) (A) (A) (A) (A) (A)
                 (A) (A) (A) (A) (A) (A) (A) (A) (A) (A) (A) (A)
                 (A) (A) (A) (A) (A) (A) (A) (A) (A) (A) (A) (A)
                 (A) (A) (A) (A) (A) (A) (A) (A) (A) (A) (A) (A)
                 (A) (A) (A) (A) (A) (A) (A) (A) (A) (A) (A) (A)
                 (A) (A) (A) (A) (A) (A) (A) (A) (A) (A) (A) (A)
                 (A) (A) (A) (A) (A) (A) (A) (A) (A) (A) (A) (A)
                 (A) (A) (A) (A) (A) (A) (A) (A) (A) (A) (A) (A)
                 (A) (A) (A) (A) (A) (A) (A) (A) (A) (A) (A) (A)
                 (A) (A) (A) (A) (A) (A) (A) (A) (A) (A) (A) (A)
                 (A) (A) (A) (A) (A) (A) (A) (A) (A) (A) (A) (A)
                 (A) (A) (A) (A) (A) (A) (A) (A) (A) (A) (A) (A)
                 (A) (A) (A) (A) (A) (A) (A) (A) (A) (A) (A) (A)
                 (A)
 The electronic state of the initial guess is 1-A.
 Requested convergence on RMS density matrix=1.00D-08 within 128 cycles.
 Requested convergence on MAX density matrix=1.00D-06.
 Requested convergence on             energy=1.00D-06.
 No special actions if energy rises.
 Integral accuracy reduced to 1.0D-05 until final iterations.
 Initial convergence to 1.0D-05 achieved.  Increase integral accuracy.
 SCF Done:  E(RB3LYP) =  -1718.35996723     A.U. after   15 cycles
             Convg  =    0.4439D-08             -V/T =  2.0091

 **********************************************************************

            Population analysis using the SCF density.

 **********************************************************************

 Orbital symmetries:
       Occupied  (A) (A) (A) (A) (A) (A) (A) (A) (A) (A) (A) (A)
                 (A) (A) (A) (A) (A) (A) (A) (A) (A) (A) (A) (A)
                 (A) (A) (A) (A) (A) (A) (A) (A) (A) (A) (A) (A)
                 (A) (A) (A) (A) (A) (A) (A) (A) (A) (A) (A) (A)
                 (A) (A) (A) (A) (A) (A) (A) (A) (A) (A) (A) (A)
                 (A) (A) (A) (A) (A) (A) (A) (A) (A) (A) (A) (A)
                 (A) (A) (A) (A) (A) (A) (A) (A) (A) (A) (A) (A)
                 (A) (A) (A) (A) (A) (A) (A) (A) (A) (A) (A) (A)
                 (A) (A) (A) (A) (A) (A) (A) (A) (A) (A) (A) (A)
                 (A) (A) (A) (A) (A) (A) (A) (A) (A) (A) (A) (A)
                 (A) (A) (A) (A) (A)
       Virtual   (A) (A) (A) (A) (A) (A) (A) (A) (A) (A) (A) (A)
                 (A) (A) (A) (A) (A) (A) (A) (A) (A) (A) (A) (A)
                 (A) (A) (A) (A) (A) (A) (A) (A) (A) (A) (A) (A)
                 (A) (A) (A) (A) (A) (A) (A) (A) (A) (A) (A) (A)
                 (A) (A) (A) (A) (A) (A) (A) (A) (A) (A) (A) (A)
                 (A) (A) (A) (A) (A) (A) (A) (A) (A) (A) (A) (A)
                 (A) (A) (A) (A) (A) (A) (A) (A) (A) (A) (A) (A)
                 (A) (A) (A) (A) (A) (A) (A) (A) (A) (A) (A) (A)
                 (A) (A) (A) (A) (A) (A) (A) (A) (A) (A) (A) (A)
                 (A) (A) (A) (A) (A) (A) (A) (A) (A) (A) (A) (A)
                 (A) (A) (A) (A) (A) (A) (A) (A) (A) (A) (A) (A)
                 (A) (A) (A) (A) (A) (A) (A) (A) (A) (A) (A) (A)
                 (A) (A) (A) (A) (A) (A) (A) (A) (A) (A) (A) (A)
                 (A) (A) (A) (A) (A) (A) (A) (A) (A) (A) (A) (A)
                 (A) (A) (A) (A) (A) (A) (A) (A) (A) (A) (A) (A)
                 (A) (A) (A) (A) (A) (A) (A) (A) (A) (A) (A) (A)
                 (A) (A) (A) (A) (A) (A) (A) (A) (A) (A) (A) (A)
                 (A) (A) (A) (A) (A) (A) (A) (A) (A) (A) (A) (A)
                 (A) (A) (A) (A) (A) (A) (A) (A) (A) (A) (A) (A)
                 (A) (A) (A) (A) (A) (A) (A) (A) (A) (A) (A) (A)
                 (A) (A) (A) (A) (A) (A) (A) (A) (A) (A) (A) (A)
                 (A) (A) (A) (A) (A) (A) (A) (A) (A) (A) (A) (A)
                 (A) (A) (A) (A) (A) (A) (A) (A) (A) (A) (A) (A)
                 (A) (A) (A) (A) (A) (A) (A) (A) (A) (A) (A) (A)
                 (A) (A) (A) (A) (A) (A) (A) (A) (A) (A) (A) (A)
                 (A) (A) (A) (A) (A) (A) (A) (A) (A) (A) (A) (A)
                 (A) (A) (A) (A) (A) (A) (A) (A) (A) (A) (A) (A)
                 (A) (A) (A) (A) (A) (A) (A) (A) (A) (A) (A) (A)
                 (A) (A) (A) (A) (A) (A) (A) (A) (A) (A) (A) (A)
                 (A) (A) (A) (A) (A) (A) (A) (A) (A) (A) (A) (A)
                 (A) (A) (A) (A) (A) (A) (A) (A) (A) (A) (A) (A)
                 (A) (A) (A) (A) (A) (A) (A) (A) (A) (A) (A) (A)
                 (A) (A) (A) (A) (A) (A) (A) (A) (A) (A) (A) (A)
                 (A) (A) (A) (A) (A) (A) (A) (A) (A) (A) (A) (A)
                 (A) (A) (A) (A) (A) (A) (A) (A) (A) (A) (A) (A)
                 (A) (A) (A) (A) (A) (A) (A) (A) (A) (A) (A) (A)
                 (A)
 The electronic state is 1-A.
 Alpha  occ. eigenvalues --  -19.22741 -19.22124 -19.19734 -19.19058 -19.18223
 Alpha  occ. eigenvalues --  -19.16749 -19.16089 -19.14426 -19.14371 -19.13981
 Alpha  occ. eigenvalues --  -19.13938 -10.34620 -10.32787 -10.31851 -10.28914
 Alpha  occ. eigenvalues --  -10.26998 -10.26272 -10.26174 -10.25661 -10.24678
 Alpha  occ. eigenvalues --  -10.24224 -10.24175 -10.21830 -10.21770 -10.21544
 Alpha  occ. eigenvalues --  -10.21412 -10.21313 -10.21271 -10.20691 -10.20122
 Alpha  occ. eigenvalues --  -10.19901 -10.19649 -10.19255 -10.18681  -1.13636
 Alpha  occ. eigenvalues --   -1.11658  -1.10318  -1.07017  -1.06119  -1.04872
 Alpha  occ. eigenvalues --   -1.03745  -1.02790  -1.02187  -1.01574  -1.00561
 Alpha  occ. eigenvalues --   -0.87617  -0.85935  -0.84286  -0.80755  -0.78862
 Alpha  occ. eigenvalues --   -0.76916  -0.75956  -0.75439  -0.74349  -0.71887
 Alpha  occ. eigenvalues --   -0.70412  -0.69566  -0.65955  -0.64974  -0.64176
 Alpha  occ. eigenvalues --   -0.63756  -0.62721  -0.60932  -0.58904  -0.58419
 Alpha  occ. eigenvalues --   -0.56614  -0.55429  -0.54630  -0.54345  -0.53238
 Alpha  occ. eigenvalues --   -0.51720  -0.51500  -0.50773  -0.50534  -0.49535
 Alpha  occ. eigenvalues --   -0.48752  -0.48557  -0.48080  -0.47801  -0.47260
 Alpha  occ. eigenvalues --   -0.46696  -0.46231  -0.45520  -0.45416  -0.44486
 Alpha  occ. eigenvalues --   -0.44384  -0.44213  -0.43586  -0.42888  -0.42653
 Alpha  occ. eigenvalues --   -0.42341  -0.42225  -0.41731  -0.40800  -0.40606
 Alpha  occ. eigenvalues --   -0.40151  -0.40014  -0.39438  -0.39105  -0.38986
 Alpha  occ. eigenvalues --   -0.38316  -0.38084  -0.37341  -0.37287  -0.36977
 Alpha  occ. eigenvalues --   -0.35935  -0.35735  -0.34812  -0.34623  -0.34581
 Alpha  occ. eigenvalues --   -0.34256  -0.33744  -0.33054  -0.32697  -0.31024
 Alpha  occ. eigenvalues --   -0.30503  -0.28612  -0.27926  -0.27659  -0.27523
 Alpha  occ. eigenvalues --   -0.26836  -0.26242  -0.25560  -0.22968  -0.21501
 Alpha virt. eigenvalues --   -0.04603  -0.03795  -0.02968  -0.02430   0.03907
 Alpha virt. eigenvalues --    0.04650   0.05918   0.06332   0.06945   0.07856
 Alpha virt. eigenvalues --    0.08257   0.09860   0.10158   0.10810   0.11124
 Alpha virt. eigenvalues --    0.11917   0.11961   0.12316   0.13107   0.13348
 Alpha virt. eigenvalues --    0.13722   0.14031   0.14686   0.15163   0.15694
 Alpha virt. eigenvalues --    0.15771   0.16424   0.16763   0.16857   0.17208
 Alpha virt. eigenvalues --    0.17467   0.17550   0.18172   0.18385   0.18723
 Alpha virt. eigenvalues --    0.19528   0.20216   0.20399   0.20971   0.21317
 Alpha virt. eigenvalues --    0.21788   0.22331   0.23229   0.23904   0.24348
 Alpha virt. eigenvalues --    0.25405   0.25924   0.26042   0.26640   0.27542
 Alpha virt. eigenvalues --    0.27902   0.29222   0.30411   0.30873   0.32093
 Alpha virt. eigenvalues --    0.32876   0.33048   0.34259   0.36804   0.37319
 Alpha virt. eigenvalues --    0.38977   0.40419   0.41046   0.41428   0.43210
 Alpha virt. eigenvalues --    0.43562   0.45597   0.47057   0.48551   0.49913
 Alpha virt. eigenvalues --    0.50468   0.50625   0.51047   0.51610   0.51762
 Alpha virt. eigenvalues --    0.52408   0.52790   0.53067   0.53983   0.54870
 Alpha virt. eigenvalues --    0.55360   0.55762   0.56243   0.56604   0.57036
 Alpha virt. eigenvalues --    0.57128   0.57773   0.58296   0.58545   0.59195
 Alpha virt. eigenvalues --    0.59490   0.59806   0.60099   0.61049   0.61906
 Alpha virt. eigenvalues --    0.62534   0.63217   0.63528   0.63931   0.64315
 Alpha virt. eigenvalues --    0.64715   0.65370   0.65888   0.66137   0.66175
 Alpha virt. eigenvalues --    0.67345   0.68616   0.69242   0.69398   0.70519
 Alpha virt. eigenvalues --    0.70883   0.71974   0.72139   0.72346   0.73161
 Alpha virt. eigenvalues --    0.74059   0.74229   0.74744   0.75527   0.75931
 Alpha virt. eigenvalues --    0.76217   0.76597   0.76868   0.78342   0.79369
 Alpha virt. eigenvalues --    0.79808   0.80707   0.81394   0.82147   0.82207
 Alpha virt. eigenvalues --    0.83236   0.83493   0.84078   0.84326   0.84739
 Alpha virt. eigenvalues --    0.84987   0.85524   0.85936   0.86146   0.86921
 Alpha virt. eigenvalues --    0.87635   0.88137   0.88400   0.88903   0.90118
 Alpha virt. eigenvalues --    0.90277   0.91126   0.91316   0.91743   0.92677
 Alpha virt. eigenvalues --    0.93059   0.93746   0.94423   0.94650   0.95241
 Alpha virt. eigenvalues --    0.95548   0.95864   0.96624   0.97154   0.97712
 Alpha virt. eigenvalues --    0.98362   0.98881   0.99676   1.00373   1.00724
 Alpha virt. eigenvalues --    1.01201   1.01450   1.01890   1.03144   1.03941
 Alpha virt. eigenvalues --    1.04183   1.05203   1.05752   1.07039   1.07725
 Alpha virt. eigenvalues --    1.08246   1.08388   1.09916   1.10182   1.11272
 Alpha virt. eigenvalues --    1.11903   1.12629   1.13203   1.14295   1.15305
 Alpha virt. eigenvalues --    1.16531   1.17120   1.18925   1.20373   1.20676
 Alpha virt. eigenvalues --    1.22274   1.22775   1.23680   1.24420   1.24691
 Alpha virt. eigenvalues --    1.25422   1.26061   1.26852   1.27321   1.27985
 Alpha virt. eigenvalues --    1.29550   1.30574   1.31937   1.33127   1.34020
 Alpha virt. eigenvalues --    1.34182   1.35259   1.35423   1.37192   1.37470
 Alpha virt. eigenvalues --    1.38638   1.39189   1.39559   1.40631   1.41318
 Alpha virt. eigenvalues --    1.42231   1.42606   1.43450   1.43643   1.44101
 Alpha virt. eigenvalues --    1.45004   1.45694   1.47109   1.48614   1.49574
 Alpha virt. eigenvalues --    1.50619   1.51456   1.54010   1.55532   1.56754
 Alpha virt. eigenvalues --    1.59772   1.61079   1.62208   1.63027   1.64355
 Alpha virt. eigenvalues --    1.65833   1.66372   1.67645   1.68541   1.69330
 Alpha virt. eigenvalues --    1.69886   1.70571   1.71170   1.71455   1.71645
 Alpha virt. eigenvalues --    1.71943   1.72505   1.73653   1.73976   1.74245
 Alpha virt. eigenvalues --    1.74850   1.75670   1.76125   1.77099   1.77442
 Alpha virt. eigenvalues --    1.78494   1.79207   1.80001   1.80136   1.80954
 Alpha virt. eigenvalues --    1.81289   1.81774   1.82099   1.83098   1.83802
 Alpha virt. eigenvalues --    1.84141   1.85308   1.85635   1.85820   1.86214
 Alpha virt. eigenvalues --    1.87350   1.87604   1.88155   1.88422   1.89229
 Alpha virt. eigenvalues --    1.89626   1.90416   1.90742   1.91870   1.93192
 Alpha virt. eigenvalues --    1.93454   1.93746   1.93945   1.94965   1.95985
 Alpha virt. eigenvalues --    1.96515   1.97258   1.98317   1.98499   1.99231
 Alpha virt. eigenvalues --    2.00929   2.01844   2.02040   2.02823   2.03285
 Alpha virt. eigenvalues --    2.04121   2.05215   2.05507   2.06107   2.06450
 Alpha virt. eigenvalues --    2.07239   2.08152   2.09153   2.09765   2.11261
 Alpha virt. eigenvalues --    2.11733   2.12438   2.13881   2.15850   2.16207
 Alpha virt. eigenvalues --    2.18844   2.19901   2.21329   2.22574   2.23273
 Alpha virt. eigenvalues --    2.24720   2.25325   2.26112   2.26803   2.27175
 Alpha virt. eigenvalues --    2.28774   2.29168   2.29719   2.30295   2.30804
 Alpha virt. eigenvalues --    2.31013   2.32216   2.32880   2.33843   2.34585
 Alpha virt. eigenvalues --    2.34798   2.35628   2.36183   2.37660   2.38515
 Alpha virt. eigenvalues --    2.39418   2.40492   2.41567   2.42543   2.43020
 Alpha virt. eigenvalues --    2.43455   2.43721   2.45411   2.45924   2.47693
 Alpha virt. eigenvalues --    2.48330   2.49662   2.52218   2.52935   2.52981
 Alpha virt. eigenvalues --    2.53859   2.54099   2.55938   2.56927   2.58468
 Alpha virt. eigenvalues --    2.58871   2.59950   2.61957   2.63961   2.65183
 Alpha virt. eigenvalues --    2.65824   2.66289   2.67631   2.68534   2.69936
 Alpha virt. eigenvalues --    2.70660   2.71086   2.71657   2.72614   2.74885
 Alpha virt. eigenvalues --    2.76262   2.77397   2.77611   2.79740   2.81645
 Alpha virt. eigenvalues --    2.84547   2.85034   2.86117   2.88240   2.89721
 Alpha virt. eigenvalues --    2.91658   2.93884   2.94644   2.95907   2.96594
 Alpha virt. eigenvalues --    2.98790   3.00758   3.02486   3.04008   3.06385
 Alpha virt. eigenvalues --    3.07217   3.10688   3.12601   3.13937   3.16564
 Alpha virt. eigenvalues --    3.22132   3.23310   3.41652   3.50140   3.77039
 Alpha virt. eigenvalues --    3.88905   3.95040   3.96988   3.97077   3.99643
 Alpha virt. eigenvalues --    4.05607   4.07668   4.09090   4.14581   4.17453
 Alpha virt. eigenvalues --    4.17744   4.19326   4.22855   4.23145   4.24762
 Alpha virt. eigenvalues --    4.25613   4.30784   4.33192   4.33779   4.37629
 Alpha virt. eigenvalues --    4.39816   4.44033   4.48320   4.52583   4.53091
 Alpha virt. eigenvalues --    4.54422   4.54465   4.58504   4.64019   4.71835
 Alpha virt. eigenvalues --    4.74090   4.79216   4.87998
          Condensed to atoms (all electrons):
 Mulliken atomic charges:
              1
     1  C    0.121325
     2  C    0.296552
     3  C   -0.274327
     4  C    0.128274
     5  C   -0.062293
     6  C    0.231785
     7  C    0.070164
     8  C    0.278137
     9  O   -0.515296
    10  C    0.638074
    11  C   -0.357080
    12  C    0.230756
    13  C   -0.308842
    14  C   -0.340794
    15  C   -0.576202
    16  O   -0.672836
    17  O   -0.643024
    18  O   -0.536159
    19  O   -0.540019
    20  C    0.090155
    21  C    0.100518
    22  C    0.106863
    23  C   -0.146788
    24  C    0.047296
    25  C   -0.350685
    26  O   -0.689831
    27  O   -0.642059
    28  C    0.611575
    29  O   -0.460052
    30  O   -0.487192
    31  C   -0.220277
    32  C    0.598445
    33  O   -0.581751
    34  O   -0.466576
    35  H    0.139735
    36  H    0.189966
    37  H    0.170936
    38  H    0.165144
    39  H    0.170525
    40  H    0.187555
    41  H    0.173578
    42  H    0.208584
    43  H    0.159309
    44  H    0.160368
    45  H    0.450071
    46  H    0.418970
    47  H    0.145472
    48  H    0.142061
    49  H    0.144521
    50  H    0.176123
    51  H    0.176562
    52  H    0.178945
    53  H    0.428082
    54  H    0.405382
    55  H    0.164880
    56  H    0.172096
    57  H    0.169050
    58  H    0.424248
 Sum of Mulliken atomic charges =   0.00000
 Mulliken charges with hydrogens summed into heavy atoms:
              1
     1  C    0.121325
     2  C    0.296552
     3  C   -0.134593
     4  C    0.128274
     5  C   -0.062293
     6  C    0.231785
     7  C    0.070164
     8  C    0.278137
     9  O   -0.515296
    10  C    0.638074
    11  C    0.003821
    12  C    0.230756
    13  C    0.026827
    14  C    0.020338
    15  C   -0.047940
    16  O   -0.222765
    17  O   -0.224054
    18  O   -0.536159
    19  O   -0.540019
    20  C    0.235627
    21  C    0.242579
    22  C    0.251384
    23  C    0.029334
    24  C    0.047296
    25  C    0.004822
    26  O   -0.261749
    27  O   -0.236677
    28  C    0.611575
    29  O   -0.460052
    30  O   -0.487192
    31  C    0.285750
    32  C    0.598445
    33  O   -0.157503
    34  O   -0.466576
 Sum of Mulliken charges with hydrogens summed into heavy atoms =   0.00000
 Electronic spatial extent (au):  <R**2>=          16100.0384
 Charge=              0.0000 electrons
 Dipole moment (field-independent basis, Debye):
    X=              1.7864    Y=             -0.6849    Z=              2.8828  Tot=              3.4599
 Quadrupole moment (field-independent basis, Debye-Ang):
   XX=           -199.9887   YY=           -168.7736   ZZ=           -203.0860
   XY=            -18.0095   XZ=            -13.6568   YZ=              6.6702
 Traceless Quadrupole moment (field-independent basis, Debye-Ang):
   XX=             -9.3726   YY=             21.8425   ZZ=            -12.4699
   XY=            -18.0095   XZ=            -13.6568   YZ=              6.6702
 Octapole moment (field-independent basis, Debye-Ang**2):
  XXX=             15.9810  YYY=             62.4949  ZZZ=             -0.4160  XYY=             23.3133
  XXY=            -22.3009  XXZ=            111.1266  XZZ=             21.0546  YZZ=             34.6966
  YYZ=              0.0134  XYZ=             -9.2836
 Hexadecapole moment (field-independent basis, Debye-Ang**3):
 XXXX=         -11474.0858 YYYY=          -5567.2510 ZZZZ=          -2307.5830 XXXY=           -621.0483
 XXXZ=           -224.7391 YYYX=           -200.9176 YYYZ=            -10.1956 ZZZX=           -124.5758
 ZZZY=             33.5334 XXYY=          -2965.1023 XXZZ=          -2213.7885 YYZZ=          -1469.9113
 XXYZ=             58.3948 YYXZ=              9.2638 ZZXY=           -140.3620
 N-N= 3.781535533043D+03 E-N=-1.157682239661D+04  KE= 1.702849365378D+03
 Calling FoFJK, ICntrl=      2127 FMM=T ISym2X=0 I1Cent= 0 IOpClX= 0 NMat=1 NMatS=1 NMatT=0.
 ***** Axes restored to original set *****
 -------------------------------------------------------------------
 Center     Atomic                   Forces (Hartrees/Bohr)
 Number     Number              X              Y              Z
 -------------------------------------------------------------------
      1        6          -0.001010236   -0.007635952   -0.003829119
      2        6          -0.004495879    0.005441552    0.000774236
      3        6          -0.007156087    0.005940145    0.000771338
      4        6           0.002967086    0.019952269    0.010230697
      5        6          -0.019529056   -0.013293673   -0.013946909
      6        6           0.008673929   -0.022770260   -0.007379940
      7        6           0.010249678   -0.010966397    0.004628752
      8        6          -0.000221734   -0.006403488   -0.006452417
      9        8          -0.009520226    0.008214642    0.000356122
     10        6           0.034358050    0.010033027    0.018057835
     11        6           0.000263801    0.000128823   -0.002853501
     12        6           0.005220364   -0.002059466   -0.006746342
     13        6          -0.005081629   -0.003544196   -0.002745032
     14        6           0.000889141   -0.010706951   -0.001151586
     15        6           0.000643991   -0.000199597   -0.000112095
     16        8           0.004357232    0.019627794    0.010898138
     17        8           0.000120674   -0.004683222   -0.001817294
     18        8          -0.023629499   -0.001167771   -0.009790264
     19        8           0.003462460    0.012218026   -0.009166251
     20        6          -0.006713161   -0.014988191    0.009501921
     21        6           0.001972043    0.016844546   -0.010195686
     22        6          -0.013706571   -0.001247223   -0.002744545
     23        6           0.004343739   -0.006696577   -0.002106053
     24        6          -0.002876561    0.007342296    0.003765829
     25        6           0.004922124    0.001697744   -0.005497388
     26        8           0.003984298   -0.003224556    0.002332512
     27        8          -0.007073910   -0.000060933    0.001495889
     28        6          -0.002752180    0.005520583   -0.007682243
     29        8           0.004449586   -0.004701596   -0.004120859
     30        8          -0.004849385    0.002845610    0.013987578
     31        6           0.005222141   -0.005550587    0.007287464
     32        6           0.010254043    0.015194171    0.009400273
     33        8          -0.002887727    0.002424610   -0.004983901
     34        8          -0.003579093   -0.015251567   -0.003282202
     35        1           0.000317720   -0.001905791   -0.000408009
     36        1          -0.004347792    0.003610416    0.004490519
     37        1           0.001740229    0.000371197   -0.000912948
     38        1           0.002056940    0.000921195    0.003719530
     39        1           0.002084545    0.001536272    0.002548572
     40        1          -0.000747309   -0.000613918   -0.000814211
     41        1           0.000434846   -0.002271582    0.000022625
     42        1          -0.004414055    0.002304508   -0.000434438
     43        1           0.004330598    0.000975692    0.001443933
     44        1           0.004044448    0.000371725    0.002407161
     45        1          -0.006394536    0.005687419   -0.000043020
     46        1          -0.000310731   -0.000460620   -0.000730542
     47        1          -0.000480941    0.000384827    0.000521272
     48        1           0.007829447   -0.007965617    0.005244447
     49        1           0.005298230    0.005301225   -0.006456560
     50        1          -0.000189219   -0.001029165   -0.001689317
     51        1           0.000800044   -0.004242897    0.000777938
     52        1          -0.000530971    0.002067608   -0.002148444
     53        1          -0.001097668    0.001302111    0.008575656
     54        1           0.002631567   -0.001873259    0.002820282
     55        1          -0.004076889    0.003859638   -0.001286769
     56        1           0.002752240    0.001173138   -0.002406439
     57        1          -0.000707024   -0.002626204   -0.002696701
     58        1          -0.002295161   -0.005151553    0.000570505
 -------------------------------------------------------------------
 Cartesian Forces:  Max     0.034358050 RMS     0.007223667

 GradGradGradGradGradGradGradGradGradGradGradGradGradGradGradGradGradGrad
 Berny optimization.
 Internal  Forces:  Max     0.027831021 RMS     0.004501506
 Search for a local minimum.
 Step number   1 out of a maximum of  340
 All quantities printed in internal units (Hartrees-Bohrs-Radians)
 Mixed Optimization -- RFO/linear search
 Second derivative matrix not updated -- first step.
 ITU=  0
     Eigenvalues ---    0.00230   0.00491   0.00491   0.00559   0.00569
     Eigenvalues ---    0.00690   0.00717   0.00877   0.01154   0.01166
     Eigenvalues ---    0.01187   0.01188   0.01212   0.01279   0.01307
     Eigenvalues ---    0.01325   0.01349   0.01363   0.01368   0.01421
     Eigenvalues ---    0.01510   0.01644   0.01713   0.01758   0.01802
     Eigenvalues ---    0.01906   0.01981   0.02021   0.02033   0.02098
     Eigenvalues ---    0.02106   0.02121   0.02122   0.02283   0.02315
     Eigenvalues ---    0.02796   0.03035   0.03447   0.03603   0.04015
     Eigenvalues ---    0.04330   0.04744   0.04885   0.04941   0.04978
     Eigenvalues ---    0.05181   0.05422   0.05731   0.05774   0.05858
     Eigenvalues ---    0.06258   0.06620   0.07053   0.07138   0.07333
     Eigenvalues ---    0.07730   0.08084   0.08108   0.08150   0.08262
     Eigenvalues ---    0.09521   0.09599   0.09689   0.09878   0.10076
     Eigenvalues ---    0.10110   0.10499   0.11839   0.12008   0.14274
     Eigenvalues ---    0.14703   0.16000   0.16000   0.16000   0.16000
     Eigenvalues ---    0.16000   0.16000   0.16000   0.16000   0.16000
     Eigenvalues ---    0.16000   0.16000   0.16000   0.16582   0.16710
     Eigenvalues ---    0.17104   0.18788   0.19332   0.19822   0.22997
     Eigenvalues ---    0.23526   0.24349   0.24981   0.24992   0.24998
     Eigenvalues ---    0.24998   0.24999   0.24999   0.25000   0.25000
     Eigenvalues ---    0.25000   0.25000   0.25000   0.25000   0.25000
     Eigenvalues ---    0.25000   0.25000   0.26893   0.27403   0.27640
     Eigenvalues ---    0.27678   0.27986   0.28475   0.28587   0.30463
     Eigenvalues ---    0.31040   0.31437   0.31989   0.32397   0.32642
     Eigenvalues ---    0.33273   0.33820   0.33854   0.33869   0.33942
     Eigenvalues ---    0.33953   0.34006   0.34011   0.34065   0.34066
     Eigenvalues ---    0.34228   0.34229   0.34232   0.34291   0.34293
     Eigenvalues ---    0.34363   0.34398   0.34411   0.34662   0.35099
     Eigenvalues ---    0.35194   0.38355   0.39492   0.39842   0.39851
     Eigenvalues ---    0.40834   0.41322   0.41586   0.43255   0.44373
     Eigenvalues ---    0.45225   0.45434   0.45933   0.49717   0.50217
     Eigenvalues ---    0.50662   0.50908   0.51219   0.51444   0.52068
     Eigenvalues ---    0.52646   0.53312   0.53632   0.53909   0.54405
     Eigenvalues ---    0.91527   0.94281   0.95405
 RFO step:  Lambda=-2.64761310D-02 EMin= 2.30273614D-03
 Linear search not attempted -- first point.
 Iteration  1 RMS(Cart)=  0.09824377 RMS(Int)=  0.00197301
 Iteration  2 RMS(Cart)=  0.00409278 RMS(Int)=  0.00041038
 Iteration  3 RMS(Cart)=  0.00000709 RMS(Int)=  0.00041035
 Iteration  4 RMS(Cart)=  0.00000001 RMS(Int)=  0.00041035
 Variable       Old X    -DE/DX   Delta X   Delta X   Delta X     New X
                                 (Linear)    (Quad)   (Total)
    R1        2.64164   0.00526   0.00000   0.00981   0.01010   2.65174
    R2        2.65273  -0.00138   0.00000  -0.00315  -0.00324   2.64948
    R3        2.84163   0.00368   0.00000   0.01062   0.01062   2.85225
    R4        2.63994   0.00152   0.00000   0.00240   0.00277   2.64271
    R5        2.58435  -0.00458   0.00000  -0.00847  -0.00847   2.57588
    R6        2.64771  -0.00479   0.00000  -0.00971  -0.00962   2.63809
    R7        2.05361  -0.00195   0.00000  -0.00517  -0.00517   2.04845
    R8        2.64771   0.01143   0.00000   0.02654   0.02594   2.67365
    R9        2.78372  -0.00965   0.00000  -0.02407  -0.02400   2.75973
   R10        2.67001   0.00106   0.00000   0.00434   0.00294   2.67295
   R11        2.79744  -0.01048   0.00000  -0.02611  -0.02730   2.77014
   R12        2.59881  -0.02783   0.00000  -0.05252  -0.05276   2.54605
   R13        2.53751   0.00385   0.00000   0.00704   0.00744   2.54494
   R14        2.86217  -0.00142   0.00000  -0.00385  -0.00385   2.85832
   R15        2.65959  -0.02007   0.00000  -0.04443  -0.04411   2.61548
   R16        2.84058  -0.00575   0.00000  -0.01492  -0.01491   2.82567
   R17        2.57103  -0.00235   0.00000  -0.00520  -0.00525   2.56578
   R18        2.32141  -0.00116   0.00000  -0.00140  -0.00129   2.32012
   R19        2.93173  -0.00521   0.00000  -0.02023  -0.02021   2.91152
   R20        2.07635  -0.00180   0.00000  -0.00494  -0.00494   2.07141
   R21        2.06721  -0.00021   0.00000  -0.00057  -0.00057   2.06665
   R22        2.91015   0.00006   0.00000   0.00018   0.00013   2.91028
   R23        2.72249  -0.00609   0.00000  -0.01445  -0.01445   2.70803
   R24        2.91111  -0.00286   0.00000  -0.00920  -0.00920   2.90192
   R25        2.89204   0.00317   0.00000   0.00865   0.00867   2.90071
   R26        2.07577  -0.00137   0.00000  -0.00375  -0.00375   2.07203
   R27        2.07410  -0.00203   0.00000  -0.00554  -0.00554   2.06856
   R28        2.07311   0.00042   0.00000   0.00114   0.00114   2.07425
   R29        2.07221   0.00035   0.00000   0.00095   0.00095   2.07316
   R30        2.06664  -0.00267   0.00000  -0.00721  -0.00721   2.05943
   R31        2.06947   0.00292   0.00000   0.00792   0.00792   2.07739
   R32        2.06945   0.00300   0.00000   0.00815   0.00815   2.07760
   R33        1.85868   0.00491   0.00000   0.00829   0.00926   1.86794
   R34        1.83364  -0.00019   0.00000  -0.00035  -0.00035   1.83329
   R35        3.21592   0.00333   0.00000   0.02712   0.02820   3.24412
   R36        2.71769   0.00611   0.00000   0.01438   0.01438   2.73206
   R37        2.90686  -0.00150   0.00000  -0.00280  -0.00287   2.90399
   R38        2.91061  -0.00018   0.00000  -0.00081  -0.00078   2.90984
   R39        2.07320   0.00015   0.00000   0.00041   0.00041   2.07361
   R40        2.90662  -0.00799   0.00000  -0.02484  -0.02483   2.88179
   R41        2.71757  -0.00599   0.00000  -0.01410  -0.01410   2.70347
   R42        2.07429   0.00078   0.00000   0.00214   0.00214   2.07643
   R43        2.82253   0.00281   0.00000   0.00771   0.00770   2.83023
   R44        2.69453   0.00630   0.00000   0.01424   0.01424   2.70878
   R45        2.07219   0.00490   0.00000   0.01335   0.01335   2.08554
   R46        2.54380  -0.00536   0.00000  -0.00983  -0.00982   2.53398
   R47        2.05515  -0.00154   0.00000  -0.00407  -0.00407   2.05108
   R48        2.84769   0.00375   0.00000   0.00984   0.00986   2.85755
   R49        2.81874   0.00066   0.00000   0.00183   0.00183   2.82057
   R50        2.06940   0.00004   0.00000   0.00010   0.00010   2.06950
   R51        2.07552  -0.00058   0.00000  -0.00159  -0.00159   2.07392
   R52        1.85355  -0.00855   0.00000  -0.01587  -0.01587   1.83769
   R53        1.84534  -0.00410   0.00000  -0.00749  -0.00749   1.83786
   R54        2.56114  -0.00254   0.00000  -0.00450  -0.00450   2.55665
   R55        2.31020  -0.01310   0.00000  -0.01351  -0.01351   2.29669
   R56        2.69796   0.00451   0.00000   0.01025   0.01025   2.70822
   R57        2.06642  -0.00103   0.00000  -0.00279  -0.00279   2.06363
   R58        2.06842  -0.00081   0.00000  -0.00220  -0.00220   2.06622
   R59        2.06839  -0.00071   0.00000  -0.00191  -0.00191   2.06648
   R60        2.55664   0.00400   0.00000   0.00701   0.00701   2.56365
   R61        2.30537  -0.01404   0.00000  -0.01432  -0.01432   2.29105
   R62        1.85660  -0.00485   0.00000  -0.00907  -0.00907   1.84754
    A1        2.04981  -0.00039   0.00000  -0.00116  -0.00158   2.04823
    A2        2.11640  -0.00118   0.00000  -0.00441  -0.00420   2.11220
    A3        2.11696   0.00158   0.00000   0.00558   0.00579   2.12275
    A4        2.12215   0.00432   0.00000   0.01516   0.01518   2.13733
    A5        2.14680  -0.00736   0.00000  -0.02637  -0.02638   2.12042
    A6        2.01423   0.00303   0.00000   0.01121   0.01120   2.02543
    A7        2.11435  -0.00608   0.00000  -0.02268  -0.02284   2.09151
    A8        2.04614   0.00306   0.00000   0.01144   0.01152   2.05767
    A9        2.12268   0.00302   0.00000   0.01122   0.01130   2.13398
   A10        2.05919   0.00585   0.00000   0.02234   0.02194   2.08113
   A11        2.13391   0.00371   0.00000   0.00725   0.00807   2.14197
   A12        2.09008  -0.00956   0.00000  -0.02959  -0.03000   2.06007
   A13        2.10434  -0.00391   0.00000  -0.01505  -0.01421   2.09014
   A14        2.08735   0.00291   0.00000   0.01148   0.01234   2.09970
   A15        2.09139   0.00100   0.00000   0.00361   0.00190   2.09329
   A16        2.11636   0.00021   0.00000   0.00147   0.00158   2.11794
   A17        2.04005   0.00494   0.00000   0.01352   0.01525   2.05530
   A18        2.12676  -0.00515   0.00000  -0.01499  -0.01683   2.10993
   A19        2.05674   0.00389   0.00000   0.01573   0.01568   2.07242
   A20        2.10934  -0.00138   0.00000  -0.00760  -0.00755   2.10178
   A21        2.11708  -0.00251   0.00000  -0.00807  -0.00809   2.10898
   A22        2.14751   0.00180   0.00000   0.00279   0.00295   2.15046
   A23        2.15952   0.00737   0.00000   0.03143   0.03132   2.19084
   A24        1.97615  -0.00917   0.00000  -0.03421  -0.03427   1.94188
   A25        2.13163   0.00037   0.00000  -0.00217  -0.00261   2.12902
   A26        2.05110   0.00062   0.00000   0.00232   0.00214   2.05323
   A27        2.10245   0.02558   0.00000   0.09503   0.09386   2.19631
   A28        2.12950  -0.02619   0.00000  -0.09723  -0.09591   2.03358
   A29        1.99130  -0.00240   0.00000  -0.01330  -0.01331   1.97799
   A30        1.86995   0.00556   0.00000   0.04488   0.04487   1.91482
   A31        1.92418  -0.00038   0.00000  -0.00330  -0.00329   1.92089
   A32        1.91873  -0.00404   0.00000  -0.02769  -0.02754   1.89118
   A33        1.89794   0.00262   0.00000   0.01252   0.01254   1.91049
   A34        1.85704  -0.00137   0.00000  -0.01353  -0.01364   1.84341
   A35        1.88685   0.00379   0.00000   0.02072   0.02064   1.90749
   A36        1.98422   0.00063   0.00000  -0.00304  -0.00290   1.98132
   A37        1.91578  -0.00375   0.00000  -0.01270  -0.01278   1.90300
   A38        1.84714  -0.00374   0.00000  -0.01950  -0.01944   1.82770
   A39        1.87441   0.00110   0.00000   0.00665   0.00674   1.88114
   A40        1.94994   0.00218   0.00000   0.00907   0.00904   1.95898
   A41        1.94181   0.00083   0.00000   0.00195   0.00205   1.94385
   A42        1.92173  -0.00355   0.00000  -0.02589  -0.02600   1.89574
   A43        1.93428  -0.00096   0.00000  -0.01351  -0.01351   1.92077
   A44        1.91512   0.00233   0.00000   0.01275   0.01267   1.92779
   A45        1.88847   0.00036   0.00000   0.01476   0.01469   1.90316
   A46        1.86039   0.00111   0.00000   0.01120   0.01079   1.87117
   A47        1.97843  -0.00669   0.00000  -0.02899  -0.02893   1.94950
   A48        1.89309   0.00181   0.00000   0.01112   0.01115   1.90423
   A49        1.91406   0.00136   0.00000  -0.00307  -0.00292   1.91114
   A50        1.91512   0.00234   0.00000   0.01148   0.01155   1.92668
   A51        1.89607   0.00311   0.00000   0.01678   0.01656   1.91264
   A52        1.86367  -0.00169   0.00000  -0.00621  -0.00634   1.85733
   A53        1.97574  -0.00768   0.00000  -0.04235  -0.04209   1.93366
   A54        1.91978   0.00482   0.00000   0.02656   0.02647   1.94625
   A55        1.91941   0.00492   0.00000   0.02681   0.02671   1.94612
   A56        1.86951   0.00111   0.00000   0.00505   0.00530   1.87481
   A57        1.86974   0.00091   0.00000   0.00351   0.00375   1.87349
   A58        1.90770  -0.00436   0.00000  -0.02100  -0.02141   1.88629
   A59        1.90760  -0.01905   0.00000  -0.09849  -0.09938   1.80822
   A60        1.91468  -0.00150   0.00000  -0.00802  -0.00802   1.90666
   A61        2.05776   0.01036   0.00000   0.03748   0.03748   2.09524
   A62        1.87589   0.00266   0.00000   0.01791   0.01796   1.89385
   A63        1.90217  -0.00119   0.00000  -0.00221  -0.00246   1.89971
   A64        1.93158  -0.00047   0.00000  -0.00844  -0.00847   1.92311
   A65        1.91370   0.00121   0.00000   0.01030   0.01014   1.92384
   A66        1.89882  -0.00153   0.00000  -0.00692  -0.00687   1.89195
   A67        1.94053  -0.00055   0.00000  -0.00951  -0.00944   1.93109
   A68        1.93291   0.00430   0.00000   0.01823   0.01847   1.95138
   A69        1.93138   0.00705   0.00000   0.04572   0.04591   1.97730
   A70        1.93004  -0.00445   0.00000  -0.02804  -0.02906   1.90098
   A71        1.88746  -0.01054   0.00000  -0.05536  -0.05553   1.83192
   A72        1.93448  -0.00196   0.00000  -0.03832  -0.03808   1.89640
   A73        1.84533   0.00554   0.00000   0.05897   0.05807   1.90340
   A74        1.97943  -0.00269   0.00000  -0.01106  -0.01132   1.96811
   A75        1.90419   0.00453   0.00000   0.02258   0.02271   1.92690
   A76        1.92711  -0.00441   0.00000  -0.03994  -0.04017   1.88693
   A77        1.88525  -0.00166   0.00000  -0.00260  -0.00249   1.88276
   A78        1.90269   0.00259   0.00000   0.00421   0.00347   1.90616
   A79        1.86100   0.00200   0.00000   0.03037   0.03064   1.89165
   A80        2.14709   0.00113   0.00000   0.00642   0.00639   2.15348
   A81        2.01903   0.00020   0.00000   0.00089   0.00091   2.01994
   A82        2.11705  -0.00133   0.00000  -0.00730  -0.00729   2.10977
   A83        2.13318   0.00259   0.00000   0.00965   0.00963   2.14281
   A84        2.14225  -0.00296   0.00000  -0.01084  -0.01086   2.13140
   A85        2.00773   0.00038   0.00000   0.00124   0.00123   2.00896
   A86        1.99926  -0.00478   0.00000  -0.01756  -0.01753   1.98173
   A87        1.89185   0.00439   0.00000   0.03224   0.03230   1.92414
   A88        1.91101  -0.00091   0.00000  -0.01671  -0.01663   1.89438
   A89        1.90958  -0.00016   0.00000  -0.00442  -0.00429   1.90529
   A90        1.89900   0.00328   0.00000   0.01695   0.01669   1.91570
   A91        1.84708  -0.00163   0.00000  -0.01021  -0.01006   1.83702
   A92        1.84888   0.00327   0.00000   0.01755   0.01755   1.86643
[...]
     51          1           0        0.573495    0.960859    0.027376
     52          1           0        1.342527    0.761782   -1.524842
     53          1           0        4.257393   -1.973771   -0.216493
     54          1           0        6.243618    0.654299   -0.180424
     55          1           0        1.917932    6.648753   -0.406722
     56          1           0        0.841692    5.821682   -1.581886
     57          1           0        0.411373    5.841762    0.143970
     58          1           0        3.813591   -3.842315    1.582458
 ---------------------------------------------------------------------
 Rotational constants (GHZ):      0.1456815      0.0884721      0.0676037

 **********************************************************************

            Population analysis using the SCF density.

 **********************************************************************

 Orbital symmetries:
       Occupied  (A) (A) (A) (A) (A) (A) (A) (A) (A) (A) (A) (A)
                 (A) (A) (A) (A) (A) (A) (A) (A) (A) (A) (A) (A)
                 (A) (A) (A) (A) (A) (A) (A) (A) (A) (A) (A) (A)
                 (A) (A) (A) (A) (A) (A) (A) (A) (A) (A) (A) (A)
                 (A) (A) (A) (A) (A) (A) (A) (A) (A) (A) (A) (A)
                 (A) (A) (A) (A) (A) (A) (A) (A) (A) (A) (A) (A)
                 (A) (A) (A) (A) (A) (A) (A) (A) (A) (A) (A) (A)
                 (A) (A) (A) (A) (A) (A) (A) (A) (A) (A) (A) (A)
                 (A) (A) (A) (A) (A) (A) (A) (A) (A) (A) (A) (A)
                 (A) (A) (A) (A) (A) (A) (A) (A) (A) (A) (A) (A)
                 (A) (A) (A) (A) (A)
       Virtual   (A) (A) (A) (A) (A) (A) (A) (A) (A) (A) (A) (A)
                 (A) (A) (A) (A) (A) (A) (A) (A) (A) (A) (A) (A)
                 (A) (A) (A) (A) (A) (A) (A) (A) (A) (A) (A) (A)
                 (A) (A) (A) (A) (A) (A) (A) (A) (A) (A) (A) (A)
                 (A) (A) (A) (A) (A) (A) (A) (A) (A) (A) (A) (A)
                 (A) (A) (A) (A) (A) (A) (A) (A) (A) (A) (A) (A)
                 (A) (A) (A) (A) (A) (A) (A) (A) (A) (A) (A) (A)
                 (A) (A) (A) (A) (A) (A) (A) (A) (A) (A) (A) (A)
                 (A) (A) (A) (A) (A) (A) (A) (A) (A) (A) (A) (A)
                 (A) (A) (A) (A) (A) (A) (A) (A) (A) (A) (A) (A)
                 (A) (A) (A) (A) (A) (A) (A) (A) (A) (A) (A) (A)
                 (A) (A) (A) (A) (A) (A) (A) (A) (A) (A) (A) (A)
                 (A) (A) (A) (A) (A) (A) (A) (A) (A) (A) (A) (A)
                 (A) (A) (A) (A) (A) (A) (A) (A) (A) (A) (A) (A)
                 (A) (A) (A) (A) (A) (A) (A) (A) (A) (A) (A) (A)
                 (A) (A) (A) (A) (A) (A) (A) (A) (A) (A) (A) (A)
                 (A) (A) (A) (A) (A) (A) (A) (A) (A) (A) (A) (A)
                 (A) (A) (A) (A) (A) (A) (A) (A) (A) (A) (A) (A)
                 (A) (A) (A) (A) (A) (A) (A) (A) (A) (A) (A) (A)
                 (A) (A) (A) (A) (A) (A) (A) (A) (A) (A) (A) (A)
                 (A) (A) (A) (A) (A) (A) (A) (A) (A) (A) (A) (A)
                 (A) (A) (A) (A) (A) (A) (A) (A) (A) (A) (A) (A)
                 (A) (A) (A) (A) (A) (A) (A) (A) (A) (A) (A) (A)
                 (A) (A) (A) (A) (A) (A) (A) (A) (A) (A) (A) (A)
                 (A) (A) (A) (A) (A) (A) (A) (A) (A) (A) (A) (A)
                 (A) (A) (A) (A) (A) (A) (A) (A) (A) (A) (A) (A)
                 (A) (A) (A) (A) (A) (A) (A) (A) (A) (A) (A) (A)
                 (A) (A) (A) (A) (A) (A) (A) (A) (A) (A) (A) (A)
                 (A) (A) (A) (A) (A) (A) (A) (A) (A) (A) (A) (A)
                 (A) (A) (A) (A) (A) (A) (A) (A) (A) (A) (A) (A)
                 (A) (A) (A) (A) (A) (A) (A) (A) (A) (A) (A) (A)
                 (A) (A) (A) (A) (A) (A) (A) (A) (A) (A) (A) (A)
                 (A) (A) (A) (A) (A) (A) (A) (A) (A) (A) (A) (A)
                 (A) (A) (A) (A) (A) (A) (A) (A) (A) (A) (A) (A)
                 (A) (A) (A) (A) (A) (A) (A) (A) (A) (A) (A) (A)
                 (A) (A) (A) (A) (A) (A) (A) (A) (A) (A) (A) (A)
                 (A)
 The electronic state is 1-A.
 Alpha  occ. eigenvalues --  -19.22421 -19.21703 -19.19261 -19.19250 -19.17739
 Alpha  occ. eigenvalues --  -19.16940 -19.16776 -19.15387 -19.14657 -19.13907
 Alpha  occ. eigenvalues --  -19.13541 -10.34275 -10.32425 -10.31522 -10.28241
 Alpha  occ. eigenvalues --  -10.26769 -10.26640 -10.26558 -10.25492 -10.24736
 Alpha  occ. eigenvalues --  -10.24195 -10.24103 -10.22144 -10.21299 -10.21192
 Alpha  occ. eigenvalues --  -10.21037 -10.20982 -10.20954 -10.20686 -10.20309
 Alpha  occ. eigenvalues --  -10.19973 -10.19807 -10.19561 -10.18850  -1.13240
 Alpha  occ. eigenvalues --   -1.12111  -1.10148  -1.07517  -1.06306  -1.05984
 Alpha  occ. eigenvalues --   -1.04224  -1.03489  -1.02493  -1.01305  -1.01244
 Alpha  occ. eigenvalues --   -0.87534  -0.85892  -0.84359  -0.80680  -0.78790
 Alpha  occ. eigenvalues --   -0.76869  -0.76126  -0.75828  -0.74395  -0.71905
 Alpha  occ. eigenvalues --   -0.70530  -0.69288  -0.66111  -0.65620  -0.64199
 Alpha  occ. eigenvalues --   -0.63746  -0.62631  -0.61103  -0.58784  -0.58253
 Alpha  occ. eigenvalues --   -0.56934  -0.55545  -0.54829  -0.54452  -0.53365
 Alpha  occ. eigenvalues --   -0.51840  -0.51676  -0.50887  -0.50565  -0.49676
 Alpha  occ. eigenvalues --   -0.49002  -0.48263  -0.48172  -0.47724  -0.47226
 Alpha  occ. eigenvalues --   -0.46567  -0.46227  -0.45488  -0.45253  -0.44425
 Alpha  occ. eigenvalues --   -0.44249  -0.44033  -0.43513  -0.42993  -0.42646
 Alpha  occ. eigenvalues --   -0.42348  -0.42198  -0.41639  -0.41025  -0.40549
 Alpha  occ. eigenvalues --   -0.40353  -0.40119  -0.39606  -0.39511  -0.39017
 Alpha  occ. eigenvalues --   -0.38485  -0.38269  -0.37392  -0.37337  -0.37132
 Alpha  occ. eigenvalues --   -0.35937  -0.35663  -0.35209  -0.34801  -0.34604
 Alpha  occ. eigenvalues --   -0.34488  -0.33641  -0.33356  -0.32856  -0.31139
 Alpha  occ. eigenvalues --   -0.30191  -0.28704  -0.28132  -0.28080  -0.27291
 Alpha  occ. eigenvalues --   -0.27096  -0.26113  -0.25698  -0.23129  -0.21460
 Alpha virt. eigenvalues --   -0.04427  -0.04221  -0.02674  -0.02344   0.04069
 Alpha virt. eigenvalues --    0.04747   0.05979   0.06471   0.07180   0.07955
 Alpha virt. eigenvalues --    0.08363   0.09986   0.10286   0.11207   0.11729
 Alpha virt. eigenvalues --    0.12212   0.12560   0.12814   0.13080   0.13353
 Alpha virt. eigenvalues --    0.13734   0.14418   0.14931   0.15312   0.15809
 Alpha virt. eigenvalues --    0.15917   0.16680   0.16865   0.17052   0.17385
 Alpha virt. eigenvalues --    0.17436   0.17950   0.18292   0.18542   0.19103
 Alpha virt. eigenvalues --    0.19797   0.20175   0.20514   0.21022   0.21665
 Alpha virt. eigenvalues --    0.22078   0.22426   0.23542   0.24044   0.24284
 Alpha virt. eigenvalues --    0.25614   0.25935   0.26728   0.27078   0.28019
 Alpha virt. eigenvalues --    0.28490   0.29739   0.30478   0.31158   0.32550
 Alpha virt. eigenvalues --    0.32705   0.33355   0.33833   0.36877   0.37655
 Alpha virt. eigenvalues --    0.39587   0.40560   0.40918   0.41341   0.43324
 Alpha virt. eigenvalues --    0.43896   0.45746   0.47072   0.48581   0.49638
 Alpha virt. eigenvalues --    0.50512   0.50951   0.51319   0.51540   0.51720
 Alpha virt. eigenvalues --    0.52269   0.52893   0.53196   0.53875   0.54357
 Alpha virt. eigenvalues --    0.55312   0.55570   0.56085   0.56487   0.56802
 Alpha virt. eigenvalues --    0.57315   0.57753   0.58021   0.58765   0.59491
 Alpha virt. eigenvalues --    0.59753   0.60073   0.60786   0.60876   0.61580
 Alpha virt. eigenvalues --    0.62588   0.62875   0.63398   0.63938   0.64146
 Alpha virt. eigenvalues --    0.64714   0.65520   0.66074   0.66428   0.66502
 Alpha virt. eigenvalues --    0.67498   0.68308   0.69240   0.69416   0.70129
 Alpha virt. eigenvalues --    0.70534   0.71677   0.72014   0.72537   0.72612
 Alpha virt. eigenvalues --    0.73623   0.74053   0.74620   0.75691   0.75972
 Alpha virt. eigenvalues --    0.76145   0.76653   0.76813   0.78666   0.79702
 Alpha virt. eigenvalues --    0.80009   0.80767   0.81536   0.81863   0.82064
 Alpha virt. eigenvalues --    0.83180   0.83621   0.84316   0.84452   0.84801
 Alpha virt. eigenvalues --    0.85076   0.85347   0.85917   0.86454   0.86777
 Alpha virt. eigenvalues --    0.87746   0.87872   0.88659   0.88924   0.90358
 Alpha virt. eigenvalues --    0.90829   0.91181   0.91863   0.92411   0.92628
 Alpha virt. eigenvalues --    0.92930   0.93819   0.94368   0.94746   0.95520
 Alpha virt. eigenvalues --    0.95979   0.96237   0.96876   0.97050   0.97761
 Alpha virt. eigenvalues --    0.98566   0.99003   0.99832   0.99899   1.00627
 Alpha virt. eigenvalues --    1.01499   1.01699   1.01875   1.03235   1.03824
 Alpha virt. eigenvalues --    1.04149   1.04892   1.05106   1.06683   1.07407
 Alpha virt. eigenvalues --    1.08065   1.08749   1.10023   1.10968   1.11285
 Alpha virt. eigenvalues --    1.12374   1.13535   1.13973   1.14565   1.15698
 Alpha virt. eigenvalues --    1.16801   1.17225   1.18470   1.20548   1.20951
 Alpha virt. eigenvalues --    1.21828   1.22883   1.24203   1.24505   1.25335
 Alpha virt. eigenvalues --    1.26300   1.26470   1.27081   1.27381   1.28526
 Alpha virt. eigenvalues --    1.29080   1.30718   1.31969   1.33480   1.34239
 Alpha virt. eigenvalues --    1.34443   1.35466   1.36370   1.36881   1.37304
 Alpha virt. eigenvalues --    1.38453   1.39036   1.39768   1.40957   1.41354
 Alpha virt. eigenvalues --    1.42711   1.43123   1.43365   1.44069   1.44409
 Alpha virt. eigenvalues --    1.45632   1.46784   1.47374   1.49512   1.49732
 Alpha virt. eigenvalues --    1.51408   1.52531   1.55643   1.56308   1.57800
 Alpha virt. eigenvalues --    1.60282   1.61542   1.62380   1.63750   1.64606
 Alpha virt. eigenvalues --    1.65400   1.66749   1.67806   1.68303   1.69218
 Alpha virt. eigenvalues --    1.70375   1.70432   1.70798   1.71202   1.71375
 Alpha virt. eigenvalues --    1.71577   1.72380   1.73708   1.74126   1.74134
 Alpha virt. eigenvalues --    1.74326   1.75667   1.75983   1.76904   1.77091
 Alpha virt. eigenvalues --    1.78334   1.79521   1.79574   1.80196   1.80751
 Alpha virt. eigenvalues --    1.81090   1.81618   1.82420   1.83152   1.84251
 Alpha virt. eigenvalues --    1.84569   1.85140   1.85635   1.85883   1.86069
 Alpha virt. eigenvalues --    1.86540   1.87830   1.88018   1.89046   1.89539
 Alpha virt. eigenvalues --    1.90277   1.91225   1.91529   1.91858   1.92893
 Alpha virt. eigenvalues --    1.93993   1.94553   1.95226   1.95825   1.96085
 Alpha virt. eigenvalues --    1.96582   1.98225   1.98803   1.99040   1.99454
 Alpha virt. eigenvalues --    2.00865   2.01463   2.02059   2.03510   2.03746
 Alpha virt. eigenvalues --    2.04744   2.05197   2.05410   2.06060   2.07527
 Alpha virt. eigenvalues --    2.08303   2.09057   2.09319   2.10129   2.11341
 Alpha virt. eigenvalues --    2.11514   2.12478   2.14049   2.16252   2.17495
 Alpha virt. eigenvalues --    2.19502   2.20584   2.21105   2.22064   2.22794
 Alpha virt. eigenvalues --    2.24227   2.24880   2.26188   2.27136   2.27821
 Alpha virt. eigenvalues --    2.28779   2.29038   2.29468   2.30149   2.30647
 Alpha virt. eigenvalues --    2.31878   2.32529   2.33265   2.34605   2.34812
 Alpha virt. eigenvalues --    2.35234   2.36392   2.37058   2.38403   2.39232
 Alpha virt. eigenvalues --    2.40062   2.41218   2.41398   2.42863   2.43247
 Alpha virt. eigenvalues --    2.43739   2.44781   2.45790   2.47471   2.47827
 Alpha virt. eigenvalues --    2.48332   2.50375   2.52830   2.53139   2.54054
 Alpha virt. eigenvalues --    2.54878   2.55218   2.55726   2.57105   2.58128
 Alpha virt. eigenvalues --    2.58631   2.60591   2.62359   2.64032   2.65184
 Alpha virt. eigenvalues --    2.66442   2.67753   2.69195   2.69720   2.70184
 Alpha virt. eigenvalues --    2.70253   2.71183   2.72433   2.73898   2.75840
 Alpha virt. eigenvalues --    2.77035   2.77627   2.79008   2.79926   2.82227
 Alpha virt. eigenvalues --    2.84336   2.86391   2.86726   2.87672   2.90381
 Alpha virt. eigenvalues --    2.91465   2.93583   2.95099   2.96436   2.96947
 Alpha virt. eigenvalues --    2.99170   3.00860   3.03668   3.05560   3.07133
 Alpha virt. eigenvalues --    3.07794   3.10272   3.13487   3.15698   3.16961
 Alpha virt. eigenvalues --    3.22865   3.23869   3.44506   3.50732   3.79201
 Alpha virt. eigenvalues --    3.91100   3.93151   3.96279   3.96863   4.00289
 Alpha virt. eigenvalues --    4.05407   4.06812   4.09398   4.14829   4.16045
 Alpha virt. eigenvalues --    4.17570   4.19389   4.21935   4.23467   4.25266
 Alpha virt. eigenvalues --    4.26218   4.31096   4.32588   4.34422   4.36756
 Alpha virt. eigenvalues --    4.40229   4.47535   4.49043   4.52743   4.53466
 Alpha virt. eigenvalues --    4.54673   4.55668   4.59682   4.66110   4.70770
 Alpha virt. eigenvalues --    4.75815   4.80223   4.88243
          Condensed to atoms (all electrons):
 Mulliken atomic charges:
              1
     1  C    0.112208
     2  C    0.302034
     3  C   -0.274884
     4  C    0.143281
     5  C   -0.058531
     6  C    0.240748
     7  C    0.055878
     8  C    0.286483
     9  O   -0.500292
    10  C    0.600636
    11  C   -0.360581
    12  C    0.224984
    13  C   -0.303346
    14  C   -0.341375
    15  C   -0.585819
    16  O   -0.660438
    17  O   -0.638480
    18  O   -0.538173
    19  O   -0.542490
    20  C    0.099753
    21  C    0.105695
    22  C    0.110269
    23  C   -0.159010
    24  C    0.054856
    25  C   -0.351337
    26  O   -0.678985
    27  O   -0.640245
    28  C    0.603670
    29  O   -0.466290
    30  O   -0.488522
    31  C   -0.216308
    32  C    0.599313
    33  O   -0.584809
    34  O   -0.457963
    35  H    0.144758
    36  H    0.182790
    37  H    0.170380
    38  H    0.157307
    39  H    0.171532
    40  H    0.188685
    41  H    0.173874
    42  H    0.209036
    43  H    0.159753
    44  H    0.162509
    45  H    0.449010
    46  H    0.421726
    47  H    0.145837
    48  H    0.135799
    49  H    0.140682
    50  H    0.177926
    51  H    0.180595
    52  H    0.176981
    53  H    0.422045
    54  H    0.407755
    55  H    0.165174
    56  H    0.172105
    57  H    0.170106
    58  H    0.421706
 Sum of Mulliken atomic charges =   0.00000
 Mulliken charges with hydrogens summed into heavy atoms:
              1
     1  C    0.112208
     2  C    0.302034
     3  C   -0.130126
     4  C    0.143281
     5  C   -0.058531
     6  C    0.240748
     7  C    0.055878
     8  C    0.286483
     9  O   -0.500292
    10  C    0.600636
    11  C   -0.007411
    12  C    0.224984
    13  C    0.025494
    14  C    0.021184
    15  C   -0.054521
    16  O   -0.211428
    17  O   -0.216754
    18  O   -0.538173
    19  O   -0.542490
    20  C    0.245589
    21  C    0.241494
    22  C    0.250951
    23  C    0.018915
    24  C    0.054856
    25  C    0.006240
    26  O   -0.256939
    27  O   -0.232490
    28  C    0.603670
    29  O   -0.466290
    30  O   -0.488522
    31  C    0.291077
    32  C    0.599313
    33  O   -0.163103
    34  O   -0.457963
 Sum of Mulliken charges with hydrogens summed into heavy atoms =   0.00000
 Electronic spatial extent (au):  <R**2>=          16328.9196
 Charge=              0.0000 electrons
 Dipole moment (field-independent basis, Debye):
    X=              1.6773    Y=             -0.9168    Z=              2.8826  Tot=              3.4588
 Quadrupole moment (field-independent basis, Debye-Ang):
   XX=           -198.7512   YY=           -167.9797   ZZ=           -203.4822
   XY=            -16.8677   XZ=            -15.2100   YZ=              4.6309
 Traceless Quadrupole moment (field-independent basis, Debye-Ang):
   XX=             -8.6802   YY=             22.0914   ZZ=            -13.4111
   XY=            -16.8677   XZ=            -15.2100   YZ=              4.6309
 Octapole moment (field-independent basis, Debye-Ang**2):
  XXX=              7.4934  YYY=             56.3682  ZZZ=              0.4900  XYY=             40.3672
  XXY=            -21.2551  XXZ=            115.0604  XZZ=             23.6034  YZZ=             30.8527
  YYZ=              4.0005  XYZ=            -16.4092
 Hexadecapole moment (field-independent basis, Debye-Ang**3):
 XXXX=         -11842.9355 YYYY=          -5489.0452 ZZZZ=          -2323.8615 XXXY=           -684.8478
 XXXZ=           -257.4525 YYYX=           -115.5767 YYYZ=            -75.0946 ZZZX=           -142.7074
 ZZZY=             27.1299 XXYY=          -2942.8724 XXZZ=          -2295.8220 YYZZ=          -1436.0005
 XXYZ=             54.2734 YYXZ=             -2.0428 ZZXY=           -138.0348
 N-N= 3.776689609533D+03 E-N=-1.156726021973D+04  KE= 1.703115295291D+03
 1\1\GINC-B0603\FOpt\RB3LYP\6-31G(d)\C23H24O11\CAOFEI\02-Feb-2021\0\\# 
 opt b3lyp/6-31g(d) geom=connectivity\\Title Card Required\\0,1\C,4.407
 383338,-1.2074876476,-1.4370914378\C,3.9852105207,0.0407484318,-0.9495
 169912\C,2.6845325432,0.5253897332,-1.1289236813\C,1.7495293677,-0.246
 1744307,-1.8160716896\C,2.1413801256,-1.5130756007,-2.3292984994\C,3.4
 700172914,-1.9842937803,-2.1324576155\C,0.3770184044,0.1825902451,-2.0
 458692884\C,-0.4464423664,-0.6190150464,-2.7554978535\O,-0.0595225844,
 -1.8385954085,-3.2477419019\C,1.206873805,-2.3356710323,-3.0578347273\
 C,-0.1109531314,1.5122167239,-1.512991462\C,-1.6414318067,1.6631029915
 ,-1.5373069885\C,-2.1956598313,1.169222427,-2.8865917568\C,-1.87325444
 55,-0.3146495347,-3.0938014734\C,5.81929594,-1.6941946172,-1.220739175
 5\O,3.8612943959,-3.1781295507,-2.6069858384\O,4.8376506051,0.85414903
 56,-0.2693460516\O,1.4416886519,-3.4442232451,-3.5372616129\O,-2.31902
 22957,0.8682576787,-0.5543193231\C,-1.9652494614,0.9962976842,0.837815
 9412\C,-3.2763140028,1.1149086884,1.6180283001\C,-2.9956667023,1.30913
 32024,3.1068463225\C,-2.0200513901,0.2886284631,3.6171566403\C,-1.1837
 791245,-0.3870526676,2.81368693\C,-1.1726231282,-0.2311062441,1.305933
 8348\O,-4.0559657899,2.2282073111,1.2085711224\O,-4.1913468188,1.22184
 22842,3.871322248\C,-0.2098360315,-1.3793617159,3.3493814608\O,-0.2526
 363336,-1.5032549704,4.6954132128\O,0.5493742138,-2.0198993376,2.64680
 95455\C,0.6607261847,-2.4613552369,5.2503258206\C,-2.0137628498,3.1445
 270828,-1.3227014132\O,-3.3575382266,3.3397617633,-1.3879826742\O,-1.2
 402523192,4.0488692251,-1.109053981\H,2.4455414176,1.5030037668,-0.728
 8211782\H,0.3243024163,2.3377790835,-2.0890839192\H,0.2495795132,1.662
 7631147,-0.4904177626\H,-1.7432117013,1.7689369614,-3.6861149125\H,-3.
 2757364175,1.3313411915,-2.9205423601\H,-2.5314538941,-0.9362595379,-2
 .4741609469\H,-2.0617725498,-0.601806338,-4.134999361\H,5.9528867456,-
 2.6768750282,-1.6745153222\H,6.560912885,-1.0202640138,-1.6738823305\H
 ,6.061646901,-1.7912906362,-0.1524730061\H,3.0745873654,-3.5825546955,
 -3.061220468\H,5.7037762288,0.4236656382,-0.1962329361\H,-1.388086123,
 1.9179308137,0.9937579898\H,-3.8429609045,0.1779036426,1.4951858772\H,
 -2.5516868306,2.314974846,3.2282549088\H,-2.0067489636,0.1288451735,4.
 6906788904\H,-0.1395407687,-0.1985539719,0.9464068861\H,-1.6137268852,
 -1.1240351585,0.8430535347\H,-4.154386805,2.1738234105,0.2425146721\H,
 -4.8135248594,1.8405644335,3.453063633\H,0.4949049758,-2.4318425381,6.
 3276698171\H,0.4563591906,-3.4607843855,4.85690795\H,1.6932813916,-2.1
 918969579,5.0121712765\H,-3.5056090752,4.2843182809,-1.1891068949\\Ver
 sion=EM64L-G09RevB.01\State=1-A\HF=-1718.3750804\RMSD=9.458e-09\RMSF=5
 .429e-06\Dipole=-0.0552342,1.3359069,0.2530427\Quadrupole=12.2547706,-
 10.3882215,-1.8665491,-4.8981896,13.0447373,-13.3216678\PG=C01 [X(C23H
 24O11)]\\@


 NOT WHAT WE DID SHALL BE THE TEST
 WHEN ACT AND WILL ARE DONE,
 BUT WHAT OUR LORD INFERS WE WOULD-
 HAD WE DIVINER BEEN.
           EMILY DICKINSON  POEMS NO. CLXXV
 Job cpu time:  0 days  4 hours 14 minutes 21.8 seconds.
 File lengths (MBytes):  RWF=    201 Int=      0 D2E=      0 Chk=     21 Scr=      1
 Normal termination of Gaussian 09 at Tue Feb  2 11:59:13 2021.
