 Entering Gaussian System, Link 0=g09
 Initial command:
 /public/software/g09/g09/l1.exe /tmp/Gau-22212.inp -scrdir=/tmp/
 Entering Link 1 = /public/software/g09/g09/l1.exe PID=     22213.
  
 Copyright (c) 1988,1990,1992,1993,1995,1998,2003,2009,2010,
            Gaussian, Inc.  All Rights Reserved.
  
 This is part of the Gaussian(R) 09 program.  It is based on
 the Gaussian(R) 03 system (copyright 2003, Gaussian, Inc.),
 the Gaussian(R) 98 system (copyright 1998, Gaussian, Inc.),
 the Gaussian(R) 94 system (copyright 1995, Gaussian, Inc.),
 the Gaussian 92(TM) system (copyright 1992, Gaussian, Inc.),
 the Gaussian 90(TM) system (copyright 1990, Gaussian, Inc.),
 the Gaussian 88(TM) system (copyright 1988, Gaussian, Inc.),
 the Gaussian 86(TM) system (copyright 1986, Carnegie Mellon
 University), and the Gaussian 82(TM) system (copyright 1983,
 Carnegie Mellon University). Gaussian is a federally registered
 trademark of Gaussian, Inc.
  
 This software contains proprietary and confidential information,
 including trade secrets, belonging to Gaussian, Inc.
  
 This software is provided under written license and may be
 used, copied, transmitted, or stored only in accord with that
 written license.
  
 The following legend is applicable only to US Government
 contracts under FAR:
  
                    RESTRICTED RIGHTS LEGEND
  
 Use, reproduction and disclosure by the US Government is
 subject to restrictions as set forth in subparagraphs (a)
 and (c) of the Commercial Computer Software - Restricted
 Rights clause in FAR 52.227-19.
  
 Gaussian, Inc.
 340 Quinnipiac St., Bldg. 40, Wallingford CT 06492
  
  
 ---------------------------------------------------------------
 Warning -- This program may not be used in any manner that
 competes with the business of Gaussian, Inc. or will provide
 assistance to any competitor of Gaussian, Inc.  The licensee
 of this program is prohibited from giving any competitor of
 Gaussian, Inc. access to this program.  By using this program,
 the user acknowledges that Gaussian, Inc. is engaged in the
 business of creating and licensing software in the field of
 computational chemistry and represents and warrants to the
 licensee that it is not a competitor of Gaussian, Inc. and that
 it will not use this program in any manner prohibited above.
 ---------------------------------------------------------------
  

 Cite this work as:
 Gaussian 09, Revision B.01,
 M. J. Frisch, G. W. Trucks, H. B. Schlegel, G. E. Scuseria, 
 M. A. Robb, J. R. Cheeseman, G. Scalmani, V. Barone, B. Mennucci, 
 G. A. Petersson, H. Nakatsuji, M. Caricato, X. Li, H. P. Hratchian, 
 A. F. Izmaylov, J. Bloino, G. Zheng, J. L. Sonnenberg, M. Hada, 
 M. Ehara, K. Toyota, R. Fukuda, J. Hasegawa, M. Ishida, T. Nakajima, 
 Y. Honda, O. Kitao, H. Nakai, T. Vreven, J. A. Montgomery, Jr., 
 J. E. Peralta, F. Ogliaro, M. Bearpark, J. J. Heyd, E. Brothers, 
 K. N. Kudin, V. N. Staroverov, T. Keith, R. Kobayashi, J. Normand, 
 K. Raghavachari, A. Rendell, J. C. Burant, S. S. Iyengar, J. Tomasi, 
 M. Cossi, N. Rega, J. M. Millam, M. Klene, J. E. Knox, J. B. Cross, 
 V. Bakken, C. Adamo, J. Jaramillo, R. Gomperts, R. E. Stratmann, 
 O. Yazyev, A. J. Austin, R. Cammi, C. Pomelli, J. W. Ochterski, 
 R. L. Martin, K. Morokuma, V. G. Zakrzewski, G. A. Voth, 
 P. Salvador, J. J. Dannenberg, S. Dapprich, A. D. Daniels, 
 O. Farkas, J. B. Foresman, J. V. Ortiz, J. Cioslowski, 
 and D. J. Fox, Gaussian, Inc., Wallingford CT, 2010.
 
 ******************************************
 Gaussian 09:  EM64L-G09RevB.01 12-Aug-2010
                13-Apr-2021 
 ******************************************
 %mem=600MW
 %nprocshared=10
 Will use up to   10 processors via shared memory.
 ----------------------------------------
 # opt b3lyp/6-311+g(d) geom=connectivity
 ----------------------------------------
 1/14=-1,18=20,19=15,26=3,38=1,57=2/1,3;
 2/9=110,12=2,17=6,18=5,40=1/2;
 3/5=4,6=6,7=11,11=2,16=1,25=1,30=1,71=1,74=-5/1,2,3;
 4//1;
 5/5=2,38=5/2;
 6/7=2,8=2,9=2,10=2,28=1/1;
 7//1,2,3,16;
 1/14=-1,18=20,19=15/3(2);
 2/9=110/2;
 99//99;
 2/9=110/2;
 3/5=4,6=6,7=11,11=2,16=1,25=1,30=1,71=1,74=-5/1,2,3;
 4/5=5,16=3/1;
 5/5=2,38=5/2;
 7//1,2,3,16;
 1/14=-1,18=20,19=15/3(-5);
 2/9=110/2;
 6/7=2,8=2,9=2,10=2,19=2,28=1/1;
 99/9=1/99;
 -------------------
 Title Card Required
 -------------------
 Symbolic Z-matrix:
 Charge =  0 Multiplicity = 1
 C                     1.60296   0.58147   3.1093 
 C                     1.62297   1.73043   2.42569 
 C                     1.69377   1.75141   0.9137 
 C                     1.47608   0.38315   0.18908 
 C                     1.13047  -0.87466   1.04087 
 C                     1.68641  -0.78254   2.48798 
 C                     0.40579   0.68846  -0.89189 
 C                    -1.01244   0.50856  -0.39632 
 C                    -1.40667  -0.4491    0.48092 
 C                    -0.37465  -1.26163   1.13616 
 C                    -2.86862  -0.58736   0.8599 
 O                    -3.49718   0.40588   1.18268 
 C                    -3.50945  -1.96934   0.77652 
 C                    -3.43742  -2.50943  -0.67834 
 C                    -4.92967  -1.95695   1.3497 
 O                    -0.65328  -2.24258   1.82189 
 C                     0.38996   2.21106  -1.14174 
 C                    -1.04261   2.45409  -1.67564 
 O                    -1.82396   1.40456  -0.96514 
 C                     0.69486   2.75726   0.26596 
 O                     0.57109  -0.12132  -2.04144 
 C                     1.88236  -1.99699   0.27609 
 C                     3.15526  -1.27918  -0.18135 
 O                     2.68976   0.04467  -0.54134 
 C                     3.91794  -1.92142  -1.32009 
 C                     3.31817  -1.89907  -2.70436 
 C                     5.08922  -2.51442  -1.06768 
 C                    -1.17119   2.19781  -3.17889 
 C                    -1.68531   3.78531  -1.29562 
 H                     1.15045   2.51047  -1.86967 
 H                     2.70849   2.0582    0.62283 
 C                     1.63677   3.06856   3.12288 
 H                     1.57898   0.61641   4.19788 
 H                     2.73821  -1.10606   2.49556 
 H                     1.14979  -1.52151   3.09035 
 H                    -2.87535  -2.62796   1.38194 
 H                    -2.38399  -2.59028  -0.97382 
 H                    -3.83197  -3.53397  -0.67122 
 H                    -4.92159  -1.65574   2.40184 
 H                    -5.37342  -2.9572    1.28244 
 H                    -5.57689  -1.25271   0.81947 
 H                     1.09266   3.77585   0.24584 
 H                    -0.22394   2.7824    0.86192 
 H                     1.54136  -0.18563  -2.13246 
 H                     1.29985  -2.33352  -0.58698 
 H                     2.08531  -2.86098   0.91373 
 H                     3.8441   -1.1776    0.66778 
 H                     2.28136  -2.25575  -2.7155 
 H                     3.31957  -0.8807   -3.11568 
 H                     3.89611  -2.52589  -3.3895 
 H                     5.64285  -3.03868  -1.84214 
 H                     5.53544  -2.50462  -0.07621 
 H                    -2.22776   2.19583  -3.46588 
 H                    -0.66726   2.99523  -3.73725 
 H                    -0.72343   1.2409   -3.45265 
 H                    -1.1294    4.61103  -1.7537 
 H                    -2.71548   3.82092  -1.66338 
 H                    -1.70838   3.9357   -0.21415 
 H                     1.65491   2.94576   4.21009 
 H                     2.52025   3.65608   2.83439 
 H                     0.75935   3.67725   2.86978 
 C                    -4.19318  -1.67503  -1.72034 
 H                    -4.07733  -2.11159  -2.7191 
 H                    -5.2659   -1.6286   -1.50322 
 H                    -3.81902  -0.64541  -1.76137 
 

 GradGradGradGradGradGradGradGradGradGradGradGradGradGradGradGradGradGrad
 Berny optimization.
 Initialization pass.
                           ----------------------------
                           !    Initial Parameters    !
                           ! (Angstroms and Degrees)  !
 --------------------------                            --------------------------
 ! Name  Definition              Value          Derivative Info.                !
 --------------------------------------------------------------------------------
 ! R1    R(1,2)                  1.3371         estimate D2E/DX2                !
 ! R2    R(1,6)                  1.5012         estimate D2E/DX2                !
 ! R3    R(1,33)                 1.0894         estimate D2E/DX2                !
 ! R4    R(2,3)                  1.5138         estimate D2E/DX2                !
 ! R5    R(2,32)                 1.5089         estimate D2E/DX2                !
 ! R6    R(3,4)                  1.5635         estimate D2E/DX2                !
 ! R7    R(3,20)                 1.5586         estimate D2E/DX2                !
 ! R8    R(3,31)                 1.0993         estimate D2E/DX2                !
 ! R9    R(4,5)                  1.5579         estimate D2E/DX2                !
 ! R10   R(4,7)                  1.5515         estimate D2E/DX2                !
 ! R11   R(4,24)                 1.4564         estimate D2E/DX2                !
 ! R12   R(5,6)                  1.553          estimate D2E/DX2                !
 ! R13   R(5,10)                 1.557          estimate D2E/DX2                !
 ! R14   R(5,22)                 1.5524         estimate D2E/DX2                !
 ! R15   R(6,34)                 1.1005         estimate D2E/DX2                !
 ! R16   R(6,35)                 1.094          estimate D2E/DX2                !
 ! R17   R(7,8)                  1.513          estimate D2E/DX2                !
 ! R18   R(7,17)                 1.543          estimate D2E/DX2                !
 ! R19   R(7,21)                 1.4158         estimate D2E/DX2                !
 ! R20   R(8,9)                  1.3572         estimate D2E/DX2                !
 ! R21   R(8,19)                 1.336          estimate D2E/DX2                !
 ! R22   R(9,10)                 1.4679         estimate D2E/DX2                !
 ! R23   R(9,11)                 1.5166         estimate D2E/DX2                !
 ! R24   R(10,16)                1.2289         estimate D2E/DX2                !
 ! R25   R(11,12)                1.2189         estimate D2E/DX2                !
 ! R26   R(11,13)                1.5256         estimate D2E/DX2                !
 ! R27   R(13,14)                1.5535         estimate D2E/DX2                !
 ! R28   R(13,15)                1.5316         estimate D2E/DX2                !
 ! R29   R(13,36)                1.0965         estimate D2E/DX2                !
 ! R30   R(14,37)                1.0971         estimate D2E/DX2                !
 ! R31   R(14,38)                1.0979         estimate D2E/DX2                !
 ! R32   R(14,62)                1.534          estimate D2E/DX2                !
 ! R33   R(15,39)                1.0944         estimate D2E/DX2                !
 ! R34   R(15,40)                1.0963         estimate D2E/DX2                !
 ! R35   R(15,41)                1.0936         estimate D2E/DX2                !
 ! R36   R(17,18)                1.548          estimate D2E/DX2                !
 ! R37   R(17,20)                1.5404         estimate D2E/DX2                !
 ! R38   R(17,30)                1.0945         estimate D2E/DX2                !
 ! R39   R(18,19)                1.4889         estimate D2E/DX2                !
 ! R40   R(18,28)                1.5304         estimate D2E/DX2                !
 ! R41   R(18,29)                1.5263         estimate D2E/DX2                !
 ! R42   R(20,42)                1.0937         estimate D2E/DX2                !
 ! R43   R(20,43)                1.0954         estimate D2E/DX2                !
 ! R44   R(21,44)                0.9766         estimate D2E/DX2                !
 ! R45   R(22,23)                1.5313         estimate D2E/DX2                !
 ! R46   R(22,45)                1.0943         estimate D2E/DX2                !
 ! R47   R(22,46)                1.0928         estimate D2E/DX2                !
 ! R48   R(23,24)                1.4487         estimate D2E/DX2                !
 ! R49   R(23,25)                1.5136         estimate D2E/DX2                !
 ! R50   R(23,47)                1.0981         estimate D2E/DX2                !
 ! R51   R(25,26)                1.5088         estimate D2E/DX2                !
 ! R52   R(25,27)                1.3369         estimate D2E/DX2                !
 ! R53   R(26,48)                1.0965         estimate D2E/DX2                !
 ! R54   R(26,49)                1.0983         estimate D2E/DX2                !
 ! R55   R(26,50)                1.0938         estimate D2E/DX2                !
 ! R56   R(27,51)                1.0868         estimate D2E/DX2                !
 ! R57   R(27,52)                1.0873         estimate D2E/DX2                !
 ! R58   R(28,53)                1.0948         estimate D2E/DX2                !
 ! R59   R(28,54)                1.0962         estimate D2E/DX2                !
 ! R60   R(28,55)                1.0914         estimate D2E/DX2                !
 ! R61   R(29,56)                1.0958         estimate D2E/DX2                !
 ! R62   R(29,57)                1.0944         estimate D2E/DX2                !
 ! R63   R(29,58)                1.0921         estimate D2E/DX2                !
 ! R64   R(32,59)                1.0943         estimate D2E/DX2                !
 ! R65   R(32,60)                1.0995         estimate D2E/DX2                !
 ! R66   R(32,61)                1.0975         estimate D2E/DX2                !
 ! R67   R(62,63)                1.0961         estimate D2E/DX2                !
 ! R68   R(62,64)                1.0955         estimate D2E/DX2                !
 ! R69   R(62,65)                1.0963         estimate D2E/DX2                !
 ! A1    A(2,1,6)              124.6346         estimate D2E/DX2                !
 ! A2    A(2,1,33)             118.924          estimate D2E/DX2                !
 ! A3    A(6,1,33)             116.3555         estimate D2E/DX2                !
 ! A4    A(1,2,3)              121.5516         estimate D2E/DX2                !
 ! A5    A(1,2,32)             121.7317         estimate D2E/DX2                !
 ! A6    A(3,2,32)             116.6649         estimate D2E/DX2                !
 ! A7    A(2,3,4)              116.3761         estimate D2E/DX2                !
 ! A8    A(2,3,20)             113.2083         estimate D2E/DX2                !
 ! A9    A(2,3,31)             108.1395         estimate D2E/DX2                !
 ! A10   A(4,3,20)             106.4348         estimate D2E/DX2                !
 ! A11   A(4,3,31)             104.4848         estimate D2E/DX2                !
 ! A12   A(20,3,31)            107.55           estimate D2E/DX2                !
 ! A13   A(3,4,5)              118.9491         estimate D2E/DX2                !
 ! A14   A(3,4,7)              104.2844         estimate D2E/DX2                !
 ! A15   A(3,4,24)             108.6503         estimate D2E/DX2                !
 ! A16   A(5,4,7)              112.7536         estimate D2E/DX2                !
 ! A17   A(5,4,24)             105.7502         estimate D2E/DX2                !
 ! A18   A(7,4,24)             105.7346         estimate D2E/DX2                !
 ! A19   A(4,5,6)              112.4682         estimate D2E/DX2                !
 ! A20   A(4,5,10)             116.6524         estimate D2E/DX2                !
 ! A21   A(4,5,22)             101.9406         estimate D2E/DX2                !
 ! A22   A(6,5,10)             107.6848         estimate D2E/DX2                !
 ! A23   A(6,5,22)             109.1819         estimate D2E/DX2                !
 ! A24   A(10,5,22)            108.5832         estimate D2E/DX2                !
 ! A25   A(1,6,5)              114.8144         estimate D2E/DX2                !
 ! A26   A(1,6,34)             108.5065         estimate D2E/DX2                !
 ! A27   A(1,6,35)             111.0139         estimate D2E/DX2                !
 ! A28   A(5,6,34)             109.3381         estimate D2E/DX2                !
 ! A29   A(5,6,35)             107.3015         estimate D2E/DX2                !
 ! A30   A(34,6,35)            105.4524         estimate D2E/DX2                !
 ! A31   A(4,7,8)              113.2665         estimate D2E/DX2                !
 ! A32   A(4,7,17)             108.3042         estimate D2E/DX2                !
 ! A33   A(4,7,21)             111.8758         estimate D2E/DX2                !
 ! A34   A(8,7,17)              99.2501         estimate D2E/DX2                !
 ! A35   A(8,7,21)             107.9006         estimate D2E/DX2                !
 ! A36   A(17,7,21)            115.7281         estimate D2E/DX2                !
 ! A37   A(7,8,9)              124.6007         estimate D2E/DX2                !
 ! A38   A(7,8,19)             110.4974         estimate D2E/DX2                !
 ! A39   A(9,8,19)             124.8871         estimate D2E/DX2                !
 ! A40   A(8,9,10)             118.3519         estimate D2E/DX2                !
 ! A41   A(8,9,11)             120.387          estimate D2E/DX2                !
 ! A42   A(10,9,11)            121.0468         estimate D2E/DX2                !
 ! A43   A(5,10,9)             120.9815         estimate D2E/DX2                !
 ! A44   A(5,10,16)            116.8545         estimate D2E/DX2                !
 ! A45   A(9,10,16)            122.1106         estimate D2E/DX2                !
 ! A46   A(9,11,12)            119.273          estimate D2E/DX2                !
 ! A47   A(9,11,13)            118.2837         estimate D2E/DX2                !
 ! A48   A(12,11,13)           122.4119         estimate D2E/DX2                !
 ! A49   A(11,13,14)           110.2811         estimate D2E/DX2                !
 ! A50   A(11,13,15)           111.206          estimate D2E/DX2                !
 ! A51   A(11,13,36)           105.7238         estimate D2E/DX2                !
 ! A52   A(14,13,15)           113.3461         estimate D2E/DX2                !
 ! A53   A(14,13,36)           106.3454         estimate D2E/DX2                !
 ! A54   A(15,13,36)           109.5402         estimate D2E/DX2                !
 ! A55   A(13,14,37)           108.8064         estimate D2E/DX2                !
 ! A56   A(13,14,38)           107.5589         estimate D2E/DX2                !
 ! A57   A(13,14,62)           115.0987         estimate D2E/DX2                !
 ! A58   A(37,14,38)           106.1436         estimate D2E/DX2                !
 ! A59   A(37,14,62)           109.2813         estimate D2E/DX2                !
 ! A60   A(38,14,62)           109.5688         estimate D2E/DX2                !
 ! A61   A(13,15,39)           110.804          estimate D2E/DX2                !
 ! A62   A(13,15,40)           110.1809         estimate D2E/DX2                !
 ! A63   A(13,15,41)           111.8732         estimate D2E/DX2                !
 ! A64   A(39,15,40)           108.244          estimate D2E/DX2                !
 ! A65   A(39,15,41)           107.0524         estimate D2E/DX2                !
 ! A66   A(40,15,41)           108.5556         estimate D2E/DX2                !
 ! A67   A(7,17,18)            102.7238         estimate D2E/DX2                !
 ! A68   A(7,17,20)            101.5299         estimate D2E/DX2                !
 ! A69   A(7,17,30)            111.7467         estimate D2E/DX2                !
 ! A70   A(18,17,20)           116.2747         estimate D2E/DX2                !
 ! A71   A(18,17,30)           111.7583         estimate D2E/DX2                !
 ! A72   A(20,17,30)           111.9167         estimate D2E/DX2                !
 ! A73   A(17,18,19)           102.1457         estimate D2E/DX2                !
 ! A74   A(17,18,28)           112.9702         estimate D2E/DX2                !
 ! A75   A(17,18,29)           116.1508         estimate D2E/DX2                !
 ! A76   A(19,18,28)           107.8547         estimate D2E/DX2                !
 ! A77   A(19,18,29)           105.9624         estimate D2E/DX2                !
 ! A78   A(28,18,29)           110.8088         estimate D2E/DX2                !
 ! A79   A(8,19,18)            110.9252         estimate D2E/DX2                !
 ! A80   A(3,20,17)            106.1298         estimate D2E/DX2                !
 ! A81   A(3,20,42)            112.0601         estimate D2E/DX2                !
 ! A82   A(3,20,43)            109.0428         estimate D2E/DX2                !
 ! A83   A(17,20,42)           112.6687         estimate D2E/DX2                !
 ! A84   A(17,20,43)           109.8335         estimate D2E/DX2                !
 ! A85   A(42,20,43)           107.0802         estimate D2E/DX2                !
 ! A86   A(7,21,44)            103.2572         estimate D2E/DX2                !
 ! A87   A(5,22,23)            102.1747         estimate D2E/DX2                !
 ! A88   A(5,22,45)            110.6751         estimate D2E/DX2                !
 ! A89   A(5,22,46)            111.9677         estimate D2E/DX2                !
 ! A90   A(23,22,45)           110.5516         estimate D2E/DX2                !
 ! A91   A(23,22,46)           112.988          estimate D2E/DX2                !
 ! A92   A(45,22,46)           108.4163         estimate D2E/DX2                !
 ! A93   A(22,23,24)           103.6204         estimate D2E/DX2                !
 ! A94   A(22,23,25)           116.4055         estimate D2E/DX2                !
 ! A95   A(22,23,47)           109.5006         estimate D2E/DX2                !
 ! A96   A(24,23,25)           111.2659         estimate D2E/DX2                !
 ! A97   A(24,23,47)           108.0094         estimate D2E/DX2                !
 ! A98   A(25,23,47)           107.7541         estimate D2E/DX2                !
 ! A99   A(4,24,23)            110.825          estimate D2E/DX2                !
 ! A100  A(23,25,26)           118.9259         estimate D2E/DX2                !
 ! A101  A(23,25,27)           119.1859         estimate D2E/DX2                !
 ! A102  A(26,25,27)           121.875          estimate D2E/DX2                !
 ! A103  A(25,26,48)           112.3574         estimate D2E/DX2                !
 ! A104  A(25,26,49)           110.9051         estimate D2E/DX2                !
 ! A105  A(25,26,50)           110.8656         estimate D2E/DX2                !
 ! A106  A(48,26,49)           107.3984         estimate D2E/DX2                !
 ! A107  A(48,26,50)           107.8693         estimate D2E/DX2                !
 ! A108  A(49,26,50)           107.2241         estimate D2E/DX2                !
 ! A109  A(25,27,51)           121.7181         estimate D2E/DX2                !
 ! A110  A(25,27,52)           121.8515         estimate D2E/DX2                !
 ! A111  A(51,27,52)           116.4289         estimate D2E/DX2                !
 ! A112  A(18,28,53)           109.8085         estimate D2E/DX2                !
 ! A113  A(18,28,54)           109.8708         estimate D2E/DX2                !
 ! A114  A(18,28,55)           111.0233         estimate D2E/DX2                !
 ! A115  A(53,28,54)           108.1463         estimate D2E/DX2                !
 ! A116  A(53,28,55)           109.1829         estimate D2E/DX2                !
 ! A117  A(54,28,55)           108.7507         estimate D2E/DX2                !
 ! A118  A(18,29,56)           109.8474         estimate D2E/DX2                !
 ! A119  A(18,29,57)           109.9422         estimate D2E/DX2                !
 ! A120  A(18,29,58)           112.0584         estimate D2E/DX2                !
 ! A121  A(56,29,57)           108.2129         estimate D2E/DX2                !
 ! A122  A(56,29,58)           108.7185         estimate D2E/DX2                !
 ! A123  A(57,29,58)           107.9629         estimate D2E/DX2                !
 ! A124  A(2,32,59)            111.0813         estimate D2E/DX2                !
 ! A125  A(2,32,60)            111.0989         estimate D2E/DX2                !
 ! A126  A(2,32,61)            112.2091         estimate D2E/DX2                !
 ! A127  A(59,32,60)           107.8981         estimate D2E/DX2                !
 ! A128  A(59,32,61)           107.7359         estimate D2E/DX2                !
 ! A129  A(60,32,61)           106.5907         estimate D2E/DX2                !
 ! A130  A(14,62,63)           110.5008         estimate D2E/DX2                !
 ! A131  A(14,62,64)           111.7695         estimate D2E/DX2                !
 ! A132  A(14,62,65)           111.6014         estimate D2E/DX2                !
 ! A133  A(63,62,64)           107.5151         estimate D2E/DX2                !
 ! A134  A(63,62,65)           107.6912         estimate D2E/DX2                !
 ! A135  A(64,62,65)           107.5673         estimate D2E/DX2                !
 ! D1    D(6,1,2,3)              1.8489         estimate D2E/DX2                !
 ! D2    D(6,1,2,32)          -175.4459         estimate D2E/DX2                !
 ! D3    D(33,1,2,3)           178.3479         estimate D2E/DX2                !
 ! D4    D(33,1,2,32)            1.0531         estimate D2E/DX2                !
 ! D5    D(2,1,6,5)            -28.1313         estimate D2E/DX2                !
 ! D6    D(2,1,6,34)            94.5172         estimate D2E/DX2                !
 ! D7    D(2,1,6,35)          -150.0428         estimate D2E/DX2                !
 ! D8    D(33,1,6,5)           155.2883         estimate D2E/DX2                !
 ! D9    D(33,1,6,34)          -82.0631         estimate D2E/DX2                !
 ! D10   D(33,1,6,35)           33.3768         estimate D2E/DX2                !
 ! D11   D(1,2,3,4)             10.9397         estimate D2E/DX2                !
 ! D12   D(1,2,3,20)           134.735          estimate D2E/DX2                !
 ! D13   D(1,2,3,31)          -106.2055         estimate D2E/DX2                !
 ! D14   D(32,2,3,4)          -171.6348         estimate D2E/DX2                !
 ! D15   D(32,2,3,20)          -47.8396         estimate D2E/DX2                !
 ! D16   D(32,2,3,31)           71.22           estimate D2E/DX2                !
 ! D17   D(1,2,32,59)            1.5003         estimate D2E/DX2                !
 ! D18   D(1,2,32,60)          121.6181         estimate D2E/DX2                !
 ! D19   D(1,2,32,61)         -119.1656         estimate D2E/DX2                !
 ! D20   D(3,2,32,59)         -175.9201         estimate D2E/DX2                !
 ! D21   D(3,2,32,60)          -55.8023         estimate D2E/DX2                !
 ! D22   D(3,2,32,61)           63.4139         estimate D2E/DX2                !
 ! D23   D(2,3,4,5)              3.2346         estimate D2E/DX2                !
 ! D24   D(2,3,4,7)            129.8851         estimate D2E/DX2                !
 ! D25   D(2,3,4,24)          -117.7022         estimate D2E/DX2                !
 ! D26   D(20,3,4,5)          -123.9855         estimate D2E/DX2                !
 ! D27   D(20,3,4,7)             2.665          estimate D2E/DX2                !
 ! D28   D(20,3,4,24)          115.0777         estimate D2E/DX2                !
 ! D29   D(31,3,4,5)           122.3796         estimate D2E/DX2                !
 ! D30   D(31,3,4,7)          -110.9699         estimate D2E/DX2                !
 ! D31   D(31,3,4,24)            1.4428         estimate D2E/DX2                !
 ! D32   D(2,3,20,17)         -153.3494         estimate D2E/DX2                !
 ! D33   D(2,3,20,42)           83.2778         estimate D2E/DX2                !
 ! D34   D(2,3,20,43)          -35.0904         estimate D2E/DX2                !
 ! D35   D(4,3,20,17)          -24.2664         estimate D2E/DX2                !
 ! D36   D(4,3,20,42)         -147.6392         estimate D2E/DX2                !
 ! D37   D(4,3,20,43)           93.9927         estimate D2E/DX2                !
 ! D38   D(31,3,20,17)          87.2519         estimate D2E/DX2                !
 ! D39   D(31,3,20,42)         -36.1209         estimate D2E/DX2                !
 ! D40   D(31,3,20,43)        -154.489          estimate D2E/DX2                !
 ! D41   D(3,4,5,6)            -27.2927         estimate D2E/DX2                !
 ! D42   D(3,4,5,10)            97.8341         estimate D2E/DX2                !
 ! D43   D(3,4,5,22)          -144.0929         estimate D2E/DX2                !
 ! D44   D(7,4,5,6)           -149.8238         estimate D2E/DX2                !
 ! D45   D(7,4,5,10)           -24.6969         estimate D2E/DX2                !
 ! D46   D(7,4,5,22)            93.3761         estimate D2E/DX2                !
 ! D47   D(24,4,5,6)            95.0999         estimate D2E/DX2                !
 ! D48   D(24,4,5,10)         -139.7732         estimate D2E/DX2                !
 ! D49   D(24,4,5,22)          -21.7003         estimate D2E/DX2                !
 ! D50   D(3,4,7,8)            -89.0537         estimate D2E/DX2                !
 ! D51   D(3,4,7,17)            20.0049         estimate D2E/DX2                !
 ! D52   D(3,4,7,21)           148.7262         estimate D2E/DX2                !
 ! D53   D(5,4,7,8)             41.3681         estimate D2E/DX2                !
 ! D54   D(5,4,7,17)           150.4267         estimate D2E/DX2                !
 ! D55   D(5,4,7,21)           -80.852          estimate D2E/DX2                !
 ! D56   D(24,4,7,8)           156.4539         estimate D2E/DX2                !
 ! D57   D(24,4,7,17)          -94.4876         estimate D2E/DX2                !
 ! D58   D(24,4,7,21)           34.2337         estimate D2E/DX2                !
 ! D59   D(3,4,24,23)          126.4448         estimate D2E/DX2                !
 ! D60   D(5,4,24,23)           -2.3092         estimate D2E/DX2                !
 ! D61   D(7,4,24,23)         -122.1083         estimate D2E/DX2                !
 ! D62   D(4,5,6,1)             38.617          estimate D2E/DX2                !
 ! D63   D(4,5,6,34)           -83.5827         estimate D2E/DX2                !
 ! D64   D(4,5,6,35)           162.5221         estimate D2E/DX2                !
 ! D65   D(10,5,6,1)           -91.2768         estimate D2E/DX2                !
 ! D66   D(10,5,6,34)          146.5235         estimate D2E/DX2                !
 ! D67   D(10,5,6,35)           32.6282         estimate D2E/DX2                !
 ! D68   D(22,5,6,1)           151.0082         estimate D2E/DX2                !
 ! D69   D(22,5,6,34)           28.8085         estimate D2E/DX2                !
 ! D70   D(22,5,6,35)          -85.0868         estimate D2E/DX2                !
 ! D71   D(4,5,10,9)            -1.6507         estimate D2E/DX2                !
 ! D72   D(4,5,10,16)         -179.045          estimate D2E/DX2                !
 ! D73   D(6,5,10,9)           125.8557         estimate D2E/DX2                !
 ! D74   D(6,5,10,16)          -51.5386         estimate D2E/DX2                !
 ! D75   D(22,5,10,9)         -116.0427         estimate D2E/DX2                !
 ! D76   D(22,5,10,16)          66.563          estimate D2E/DX2                !
 ! D77   D(4,5,22,23)           36.3916         estimate D2E/DX2                !
 ! D78   D(4,5,22,45)          -81.3358         estimate D2E/DX2                !
 ! D79   D(4,5,22,46)          157.5782         estimate D2E/DX2                !
 ! D80   D(6,5,22,23)          -82.7621         estimate D2E/DX2                !
 ! D81   D(6,5,22,45)          159.5105         estimate D2E/DX2                !
 ! D82   D(6,5,22,46)           38.4245         estimate D2E/DX2                !
 ! D83   D(10,5,22,23)         160.0897         estimate D2E/DX2                !
 ! D84   D(10,5,22,45)          42.3624         estimate D2E/DX2                !
 ! D85   D(10,5,22,46)         -78.7236         estimate D2E/DX2                !
 ! D86   D(4,7,8,9)            -35.8282         estimate D2E/DX2                !
 ! D87   D(4,7,8,19)           145.5151         estimate D2E/DX2                !
 ! D88   D(17,7,8,9)          -150.4353         estimate D2E/DX2                !
 ! D89   D(17,7,8,19)           30.9079         estimate D2E/DX2                !
 ! D90   D(21,7,8,9)            88.5806         estimate D2E/DX2                !
 ! D91   D(21,7,8,19)          -90.0761         estimate D2E/DX2                !
 ! D92   D(4,7,17,18)         -155.1579         estimate D2E/DX2                !
 ! D93   D(4,7,17,20)          -34.5455         estimate D2E/DX2                !
 ! D94   D(4,7,17,30)           84.8942         estimate D2E/DX2                !
 ! D95   D(8,7,17,18)          -36.7714         estimate D2E/DX2                !
 ! D96   D(8,7,17,20)           83.841          estimate D2E/DX2                !
 ! D97   D(8,7,17,30)         -156.7193         estimate D2E/DX2                !
 ! D98   D(21,7,17,18)          78.3264         estimate D2E/DX2                !
 ! D99   D(21,7,17,20)        -161.0612         estimate D2E/DX2                !
 ! D100  D(21,7,17,30)         -41.6215         estimate D2E/DX2                !
 ! D101  D(4,7,21,44)          -37.2711         estimate D2E/DX2                !
 ! D102  D(8,7,21,44)         -162.5109         estimate D2E/DX2                !
 ! D103  D(17,7,21,44)          87.4198         estimate D2E/DX2                !
 ! D104  D(7,8,9,10)             8.3799         estimate D2E/DX2                !
 ! D105  D(7,8,9,11)          -176.8827         estimate D2E/DX2                !
 ! D106  D(19,8,9,10)         -173.154          estimate D2E/DX2                !
 ! D107  D(19,8,9,11)            1.5834         estimate D2E/DX2                !
 ! D108  D(7,8,19,18)          -11.5925         estimate D2E/DX2                !
 ! D109  D(9,8,19,18)          169.7555         estimate D2E/DX2                !
 ! D110  D(8,9,10,5)            11.1848         estimate D2E/DX2                !
 ! D111  D(8,9,10,16)         -171.5598         estimate D2E/DX2                !
 ! D112  D(11,9,10,5)         -163.5163         estimate D2E/DX2                !
 ! D113  D(11,9,10,16)          13.739          estimate D2E/DX2                !
 ! D114  D(8,9,11,12)          -48.2197         estimate D2E/DX2                !
 ! D115  D(8,9,11,13)          129.7915         estimate D2E/DX2                !
 ! D116  D(10,9,11,12)         126.3741         estimate D2E/DX2                !
 ! D117  D(10,9,11,13)         -55.6147         estimate D2E/DX2                !
 ! D118  D(9,11,13,14)         -60.1398         estimate D2E/DX2                !
 ! D119  D(9,11,13,15)         173.2378         estimate D2E/DX2                !
 ! D120  D(9,11,13,36)          54.4255         estimate D2E/DX2                !
 ! D121  D(12,11,13,14)        117.8052         estimate D2E/DX2                !
 ! D122  D(12,11,13,15)         -8.8172         estimate D2E/DX2                !
 ! D123  D(12,11,13,36)       -127.6295         estimate D2E/DX2                !
 ! D124  D(11,13,14,37)         60.7689         estimate D2E/DX2                !
 ! D125  D(11,13,14,38)        175.3413         estimate D2E/DX2                !
 ! D126  D(11,13,14,62)        -62.2364         estimate D2E/DX2                !
 ! D127  D(15,13,14,37)       -173.8145         estimate D2E/DX2                !
 ! D128  D(15,13,14,38)        -59.2421         estimate D2E/DX2                !
 ! D129  D(15,13,14,62)         63.1801         estimate D2E/DX2                !
 ! D130  D(36,13,14,37)        -53.4019         estimate D2E/DX2                !
 ! D131  D(36,13,14,38)         61.1705         estimate D2E/DX2                !
 ! D132  D(36,13,14,62)       -176.4072         estimate D2E/DX2                !
 ! D133  D(11,13,15,39)        -60.1765         estimate D2E/DX2                !
 ! D134  D(11,13,15,40)       -179.9421         estimate D2E/DX2                !
 ! D135  D(11,13,15,41)         59.2011         estimate D2E/DX2                !
 ! D136  D(14,13,15,39)        174.9041         estimate D2E/DX2                !
 ! D137  D(14,13,15,40)         55.1385         estimate D2E/DX2                !
 ! D138  D(14,13,15,41)        -65.7183         estimate D2E/DX2                !
 ! D139  D(36,13,15,39)         56.3204         estimate D2E/DX2                !
 ! D140  D(36,13,15,40)        -63.4452         estimate D2E/DX2                !
 ! D141  D(36,13,15,41)        175.698          estimate D2E/DX2                !
 ! D142  D(13,14,62,63)        178.9479         estimate D2E/DX2                !
 ! D143  D(13,14,62,64)        -61.3626         estimate D2E/DX2                !
 ! D144  D(13,14,62,65)         59.1469         estimate D2E/DX2                !
 ! D145  D(37,14,62,63)         56.1962         estimate D2E/DX2                !
 ! D146  D(37,14,62,64)        175.8857         estimate D2E/DX2                !
 ! D147  D(37,14,62,65)        -63.6048         estimate D2E/DX2                !
 ! D148  D(38,14,62,63)        -59.7152         estimate D2E/DX2                !
 ! D149  D(38,14,62,64)         59.9743         estimate D2E/DX2                !
 ! D150  D(38,14,62,65)       -179.5162         estimate D2E/DX2                !
 ! D151  D(7,17,18,19)          31.4191         estimate D2E/DX2                !
 ! D152  D(7,17,18,28)         -84.1663         estimate D2E/DX2                !
 ! D153  D(7,17,18,29)         146.1939         estimate D2E/DX2                !
 ! D154  D(20,17,18,19)        -78.4573         estimate D2E/DX2                !
 ! D155  D(20,17,18,28)        165.9573         estimate D2E/DX2                !
 ! D156  D(20,17,18,29)         36.3174         estimate D2E/DX2                !
 ! D157  D(30,17,18,19)        151.359          estimate D2E/DX2                !
 ! D158  D(30,17,18,28)         35.7735         estimate D2E/DX2                !
 ! D159  D(30,17,18,29)        -93.8663         estimate D2E/DX2                !
 ! D160  D(7,17,20,3)           35.5074         estimate D2E/DX2                !
 ! D161  D(7,17,20,42)         158.4973         estimate D2E/DX2                !
 ! D162  D(7,17,20,43)         -82.2268         estimate D2E/DX2                !
 ! D163  D(18,17,20,3)         146.0802         estimate D2E/DX2                !
 ! D164  D(18,17,20,42)        -90.9299         estimate D2E/DX2                !
 ! D165  D(18,17,20,43)         28.346          estimate D2E/DX2                !
 ! D166  D(30,17,20,3)         -83.8113         estimate D2E/DX2                !
 ! D167  D(30,17,20,42)         39.1785         estimate D2E/DX2                !
 ! D168  D(30,17,20,43)        158.4545         estimate D2E/DX2                !
 ! D169  D(17,18,19,8)         -13.0962         estimate D2E/DX2                !
 ! D170  D(28,18,19,8)         106.1598         estimate D2E/DX2                !
 ! D171  D(29,18,19,8)        -135.1331         estimate D2E/DX2                !
 ! D172  D(17,18,28,53)        169.2165         estimate D2E/DX2                !
 ! D173  D(17,18,28,54)        -71.9566         estimate D2E/DX2                !
 ! D174  D(17,18,28,55)         48.3802         estimate D2E/DX2                !
 ! D175  D(19,18,28,53)         57.0923         estimate D2E/DX2                !
 ! D176  D(19,18,28,54)        175.9193         estimate D2E/DX2                !
 ! D177  D(19,18,28,55)        -63.744          estimate D2E/DX2                !
 ! D178  D(29,18,28,53)        -58.4706         estimate D2E/DX2                !
 ! D179  D(29,18,28,54)         60.3564         estimate D2E/DX2                !
 ! D180  D(29,18,28,55)       -179.3069         estimate D2E/DX2                !
 ! D181  D(17,18,29,56)         65.0133         estimate D2E/DX2                !
 ! D182  D(17,18,29,57)       -176.0104         estimate D2E/DX2                !
 ! D183  D(17,18,29,58)        -55.9438         estimate D2E/DX2                !
 ! D184  D(19,18,29,56)        177.6094         estimate D2E/DX2                !
 ! D185  D(19,18,29,57)        -63.4143         estimate D2E/DX2                !
 ! D186  D(19,18,29,58)         56.6524         estimate D2E/DX2                !
 ! D187  D(28,18,29,56)        -65.6559         estimate D2E/DX2                !
 ! D188  D(28,18,29,57)         53.3203         estimate D2E/DX2                !
 ! D189  D(28,18,29,58)        173.387          estimate D2E/DX2                !
 ! D190  D(5,22,23,24)         -38.4969         estimate D2E/DX2                !
 ! D191  D(5,22,23,25)        -160.9747         estimate D2E/DX2                !
 ! D192  D(5,22,23,47)          76.5453         estimate D2E/DX2                !
 ! D193  D(45,22,23,24)         79.3187         estimate D2E/DX2                !
 ! D194  D(45,22,23,25)        -43.1591         estimate D2E/DX2                !
 ! D195  D(45,22,23,47)       -165.6391         estimate D2E/DX2                !
 ! D196  D(46,22,23,24)       -158.9764         estimate D2E/DX2                !
 ! D197  D(46,22,23,25)         78.5458         estimate D2E/DX2                !
 ! D198  D(46,22,23,47)        -43.9342         estimate D2E/DX2                !
 ! D199  D(22,23,24,4)          25.8731         estimate D2E/DX2                !
 ! D200  D(25,23,24,4)         151.6994         estimate D2E/DX2                !
 ! D201  D(47,23,24,4)         -90.2273         estimate D2E/DX2                !
 ! D202  D(22,23,25,26)         70.2794         estimate D2E/DX2                !
 ! D203  D(22,23,25,27)       -108.4215         estimate D2E/DX2                !
 ! D204  D(24,23,25,26)        -48.1046         estimate D2E/DX2                !
 ! D205  D(24,23,25,27)        133.1946         estimate D2E/DX2                !
 ! D206  D(47,23,25,26)       -166.3318         estimate D2E/DX2                !
 ! D207  D(47,23,25,27)         14.9673         estimate D2E/DX2                !
 ! D208  D(23,25,26,48)        -50.5091         estimate D2E/DX2                !
 ! D209  D(23,25,26,49)         69.7031         estimate D2E/DX2                !
 ! D210  D(23,25,26,50)       -171.2964         estimate D2E/DX2                !
 ! D211  D(27,25,26,48)        128.1553         estimate D2E/DX2                !
 ! D212  D(27,25,26,49)       -111.6326         estimate D2E/DX2                !
 ! D213  D(27,25,26,50)          7.368          estimate D2E/DX2                !
 ! D214  D(23,25,27,51)        176.3396         estimate D2E/DX2                !
 ! D215  D(23,25,27,52)         -3.2042         estimate D2E/DX2                !
 ! D216  D(26,25,27,51)         -2.3214         estimate D2E/DX2                !
 ! D217  D(26,25,27,52)        178.1348         estimate D2E/DX2                !
 --------------------------------------------------------------------------------
 Trust Radius=3.00D-01 FncErr=1.00D-07 GrdErr=1.00D-06
 Number of steps in this run=    390 maximum allowed number of steps=    390.
 GradGradGradGradGradGradGradGradGradGradGradGradGradGradGradGradGradGrad

 Stoichiometry    C26H34O5
 Framework group  C1[X(C26H34O5)]
 Deg. of freedom   189
 Full point group                 C1      NOp   1
 Largest Abelian subgroup         C1      NOp   1
 Largest concise Abelian subgroup C1      NOp   1
                         Standard orientation:                         
 ---------------------------------------------------------------------
 Center     Atomic      Atomic             Coordinates (Angstroms)
 Number     Number       Type             X           Y           Z
 ---------------------------------------------------------------------
      1          6           0        1.602962    0.581473    3.109298
      2          6           0        1.622970    1.730427    2.425691
      3          6           0        1.693770    1.751410    0.913704
      4          6           0        1.476081    0.383147    0.189079
      5          6           0        1.130466   -0.874662    1.040870
      6          6           0        1.686411   -0.782536    2.487979
      7          6           0        0.405786    0.688459   -0.891891
      8          6           0       -1.012436    0.508559   -0.396324
      9          6           0       -1.406665   -0.449103    0.480919
     10          6           0       -0.374650   -1.261630    1.136156
     11          6           0       -2.868620   -0.587359    0.859897
     12          8           0       -3.497175    0.405884    1.182684
     13          6           0       -3.509453   -1.969344    0.776515
     14          6           0       -3.437422   -2.509429   -0.678338
     15          6           0       -4.929666   -1.956947    1.349702
     16          8           0       -0.653277   -2.242582    1.821891
     17          6           0        0.389960    2.211061   -1.141743
     18          6           0       -1.042605    2.454091   -1.675642
     19          8           0       -1.823958    1.404561   -0.965141
     20          6           0        0.694855    2.757262    0.265962
     21          8           0        0.571089   -0.121319   -2.041442
     22          6           0        1.882362   -1.996989    0.276090
     23          6           0        3.155258   -1.279182   -0.181349
     24          8           0        2.689758    0.044669   -0.541340
     25          6           0        3.917936   -1.921416   -1.320091
     26          6           0        3.318167   -1.899071   -2.704362
     27          6           0        5.089218   -2.514417   -1.067684
     28          6           0       -1.171194    2.197811   -3.178893
     29          6           0       -1.685313    3.785308   -1.295616
     30          1           0        1.150451    2.510468   -1.869669
     31          1           0        2.708485    2.058202    0.622834
     32          6           0        1.636768    3.068558    3.122877
     33          1           0        1.578983    0.616411    4.197878
     34          1           0        2.738205   -1.106064    2.495562
     35          1           0        1.149786   -1.521513    3.090345
     36          1           0       -2.875345   -2.627957    1.381936
     37          1           0       -2.383990   -2.590279   -0.973821
     38          1           0       -3.831974   -3.533967   -0.671224
     39          1           0       -4.921592   -1.655736    2.401843
     40          1           0       -5.373417   -2.957203    1.282443
     41          1           0       -5.576894   -1.252714    0.819468
     42          1           0        1.092656    3.775846    0.245838
     43          1           0       -0.223939    2.782399    0.861922
     44          1           0        1.541356   -0.185630   -2.132461
     45          1           0        1.299853   -2.333519   -0.586982
     46          1           0        2.085314   -2.860979    0.913734
     47          1           0        3.844095   -1.177603    0.667778
     48          1           0        2.281357   -2.255749   -2.715504
     49          1           0        3.319567   -0.880696   -3.115678
     50          1           0        3.896106   -2.525886   -3.389503
     51          1           0        5.642848   -3.038679   -1.842143
     52          1           0        5.535436   -2.504621   -0.076210
     53          1           0       -2.227757    2.195829   -3.465884
     54          1           0       -0.667260    2.995225   -3.737250
     55          1           0       -0.723434    1.240895   -3.452646
     56          1           0       -1.129396    4.611025   -1.753701
     57          1           0       -2.715481    3.820916   -1.663382
     58          1           0       -1.708375    3.935700   -0.214148
     59          1           0        1.654912    2.945758    4.210094
     60          1           0        2.520250    3.656080    2.834386
     61          1           0        0.759347    3.677250    2.869777
     62          6           0       -4.193178   -1.675032   -1.720335
     63          1           0       -4.077334   -2.111595   -2.719097
     64          1           0       -5.265902   -1.628601   -1.503221
     65          1           0       -3.819023   -0.645407   -1.761368
 ---------------------------------------------------------------------
 Rotational constants (GHZ):      0.1915520      0.1303204      0.1207615
 Standard basis: 6-311+G(d) (5D, 7F)
 There are   784 symmetry adapted basis functions of A   symmetry.
 Integral buffers will be    131072 words long.
 Raffenetti 2 integral format.
 Two-electron integral symmetry is turned on.
   784 basis functions,  1286 primitive gaussians,   815 cartesian basis functions
   115 alpha electrons      115 beta electrons
       nuclear repulsion energy      3522.6285656842 Hartrees.
 NAtoms=   65 NActive=   65 NUniq=   65 SFac= 1.00D+00 NAtFMM=   50 NAOKFM=T Big=T
 One-electron integrals computed using PRISM.
 NBasis=   784 RedAO= T  NBF=   784
 NBsUse=   777 1.00D-06 NBFU=   777
 Harris functional with IExCor=  402 diagonalized for initial guess.
 ExpMin= 4.38D-02 ExpMax= 8.59D+03 ExpMxC= 1.30D+03 IAcc=2 IRadAn=         0 AccDes= 0.00D+00
 HarFok:  IExCor=  402 AccDes= 0.00D+00 IRadAn=         0 IDoV= 1
 ScaDFX=  1.000000  1.000000  1.000000  1.000000
 FoFCou: FMM=F IPFlag=           0 FMFlag=      100000 FMFlg1=        2001
         NFxFlg=           0 DoJE=T BraDBF=F KetDBF=T FulRan=T
         Omega=  0.000000  0.000000  1.000000  0.000000  0.000000 ICntrl=     500 IOpCl=  0
         NMat0=    1 NMatS0=    1 NMatT0=    0 NMatD0=    1 NMtDS0=    0 NMtDT0=    0
         I1Cent=           4 NGrid=           0.
 Petite list used in FoFCou.
 Initial guess orbital symmetries:
       Occupied  (A) (A) (A) (A) (A) (A) (A) (A) (A) (A) (A) (A)
                 (A) (A) (A) (A) (A) (A) (A) (A) (A) (A) (A) (A)
                 (A) (A) (A) (A) (A) (A) (A) (A) (A) (A) (A) (A)
                 (A) (A) (A) (A) (A) (A) (A) (A) (A) (A) (A) (A)
                 (A) (A) (A) (A) (A) (A) (A) (A) (A) (A) (A) (A)
                 (A) (A) (A) (A) (A) (A) (A) (A) (A) (A) (A) (A)
                 (A) (A) (A) (A) (A) (A) (A) (A) (A) (A) (A) (A)
                 (A) (A) (A) (A) (A) (A) (A) (A) (A) (A) (A) (A)
                 (A) (A) (A) (A) (A) (A) (A) (A) (A) (A) (A) (A)
                 (A) (A) (A) (A) (A) (A) (A)
       Virtual   (A) (A) (A) (A) (A) (A) (A) (A) (A) (A) (A) (A)
                 (A) (A) (A) (A) (A) (A) (A) (A) (A) (A) (A) (A)
                 (A) (A) (A) (A) (A) (A) (A) (A) (A) (A) (A) (A)
                 (A) (A) (A) (A) (A) (A) (A) (A) (A) (A) (A) (A)
                 (A) (A) (A) (A) (A) (A) (A) (A) (A) (A) (A) (A)
                 (A) (A) (A) (A) (A) (A) (A) (A) (A) (A) (A) (A)
                 (A) (A) (A) (A) (A) (A) (A) (A) (A) (A) (A) (A)
                 (A) (A) (A) (A) (A) (A) (A) (A) (A) (A) (A) (A)
                 (A) (A) (A) (A) (A) (A) (A) (A) (A) (A) (A) (A)
                 (A) (A) (A) (A) (A) (A) (A) (A) (A) (A) (A) (A)
                 (A) (A) (A) (A) (A) (A) (A) (A) (A) (A) (A) (A)
                 (A) (A) (A) (A) (A) (A) (A) (A) (A) (A) (A) (A)
                 (A) (A) (A) (A) (A) (A) (A) (A) (A) (A) (A) (A)
                 (A) (A) (A) (A) (A) (A) (A) (A) (A) (A) (A) (A)
                 (A) (A) (A) (A) (A) (A) (A) (A) (A) (A) (A) (A)
                 (A) (A) (A) (A) (A) (A) (A) (A) (A) (A) (A) (A)
                 (A) (A) (A) (A) (A) (A) (A) (A) (A) (A) (A) (A)
                 (A) (A) (A) (A) (A) (A) (A) (A) (A) (A) (A) (A)
                 (A) (A) (A) (A) (A) (A) (A) (A) (A) (A) (A) (A)
                 (A) (A) (A) (A) (A) (A) (A) (A) (A) (A) (A) (A)
                 (A) (A) (A) (A) (A) (A) (A) (A) (A) (A) (A) (A)
                 (A) (A) (A) (A) (A) (A) (A) (A) (A) (A) (A) (A)
                 (A) (A) (A) (A) (A) (A) (A) (A) (A) (A) (A) (A)
                 (A) (A) (A) (A) (A) (A) (A) (A) (A) (A) (A) (A)
                 (A) (A) (A) (A) (A) (A) (A) (A) (A) (A) (A) (A)
                 (A) (A) (A) (A) (A) (A) (A) (A) (A) (A) (A) (A)
                 (A) (A) (A) (A) (A) (A) (A) (A) (A) (A) (A) (A)
                 (A) (A) (A) (A) (A) (A) (A) (A) (A) (A) (A) (A)
                 (A) (A) (A) (A) (A) (A) (A) (A) (A) (A) (A) (A)
                 (A) (A) (A) (A) (A) (A) (A) (A) (A) (A) (A) (A)
                 (A) (A) (A) (A) (A) (A) (A) (A) (A) (A) (A) (A)
                 (A) (A) (A) (A) (A) (A) (A) (A) (A) (A) (A) (A)
                 (A) (A) (A) (A) (A) (A) (A) (A) (A) (A) (A) (A)
                 (A) (A) (A) (A) (A) (A) (A) (A) (A) (A) (A) (A)
                 (A) (A) (A) (A) (A) (A) (A) (A) (A) (A) (A) (A)
                 (A) (A) (A) (A) (A) (A) (A) (A) (A) (A) (A) (A)
                 (A) (A) (A) (A) (A) (A) (A) (A) (A) (A) (A) (A)
                 (A) (A) (A) (A) (A) (A) (A) (A) (A) (A) (A) (A)
                 (A) (A) (A) (A) (A) (A) (A) (A) (A) (A) (A) (A)
                 (A) (A) (A) (A) (A) (A) (A) (A) (A) (A) (A) (A)
                 (A) (A) (A) (A) (A) (A) (A) (A) (A) (A) (A) (A)
                 (A) (A) (A) (A) (A) (A) (A) (A) (A) (A) (A) (A)
                 (A) (A) (A) (A) (A) (A) (A) (A) (A) (A) (A) (A)
                 (A) (A) (A) (A) (A) (A) (A) (A) (A) (A) (A) (A)
                 (A) (A) (A) (A) (A) (A) (A) (A) (A) (A) (A) (A)
                 (A) (A) (A) (A) (A) (A) (A) (A) (A) (A) (A) (A)
                 (A) (A) (A) (A) (A) (A) (A) (A) (A) (A) (A) (A)
                 (A) (A) (A) (A) (A) (A) (A) (A) (A) (A) (A) (A)
                 (A) (A) (A) (A) (A) (A) (A) (A) (A) (A) (A) (A)
                 (A) (A) (A) (A) (A) (A) (A) (A) (A) (A) (A) (A)
                 (A) (A) (A) (A) (A) (A) (A) (A) (A) (A) (A) (A)
                 (A) (A) (A) (A) (A) (A) (A) (A) (A) (A) (A) (A)
                 (A) (A) (A) (A) (A) (A) (A) (A) (A) (A) (A) (A)
                 (A) (A) (A) (A) (A) (A) (A) (A) (A) (A) (A) (A)
                 (A) (A) (A) (A) (A) (A) (A) (A) (A) (A) (A) (A)
                 (A) (A)
 The electronic state of the initial guess is 1-A.
 Requested convergence on RMS density matrix=1.00D-08 within 128 cycles.
 Requested convergence on MAX density matrix=1.00D-06.
 Requested convergence on             energy=1.00D-06.
 No special actions if energy rises.
 SCF Done:  E(RB3LYP) =  -1387.64770399     A.U. after   17 cycles
             Convg  =    0.4903D-08             -V/T =  2.0043

 **********************************************************************

            Population analysis using the SCF density.

 **********************************************************************

 Orbital symmetries:
       Occupied  (A) (A) (A) (A) (A) (A) (A) (A) (A) (A) (A) (A)
                 (A) (A) (A) (A) (A) (A) (A) (A) (A) (A) (A) (A)
                 (A) (A) (A) (A) (A) (A) (A) (A) (A) (A) (A) (A)
                 (A) (A) (A) (A) (A) (A) (A) (A) (A) (A) (A) (A)
                 (A) (A) (A) (A) (A) (A) (A) (A) (A) (A) (A) (A)
                 (A) (A) (A) (A) (A) (A) (A) (A) (A) (A) (A) (A)
                 (A) (A) (A) (A) (A) (A) (A) (A) (A) (A) (A) (A)
                 (A) (A) (A) (A) (A) (A) (A) (A) (A) (A) (A) (A)
                 (A) (A) (A) (A) (A) (A) (A) (A) (A) (A) (A) (A)
                 (A) (A) (A) (A) (A) (A) (A)
       Virtual   (A) (A) (A) (A) (A) (A) (A) (A) (A) (A) (A) (A)
                 (A) (A) (A) (A) (A) (A) (A) (A) (A) (A) (A) (A)
                 (A) (A) (A) (A) (A) (A) (A) (A) (A) (A) (A) (A)
                 (A) (A) (A) (A) (A) (A) (A) (A) (A) (A) (A) (A)
                 (A) (A) (A) (A) (A) (A) (A) (A) (A) (A) (A) (A)
                 (A) (A) (A) (A) (A) (A) (A) (A) (A) (A) (A) (A)
                 (A) (A) (A) (A) (A) (A) (A) (A) (A) (A) (A) (A)
                 (A) (A) (A) (A) (A) (A) (A) (A) (A) (A) (A) (A)
                 (A) (A) (A) (A) (A) (A) (A) (A) (A) (A) (A) (A)
                 (A) (A) (A) (A) (A) (A) (A) (A) (A) (A) (A) (A)
                 (A) (A) (A) (A) (A) (A) (A) (A) (A) (A) (A) (A)
                 (A) (A) (A) (A) (A) (A) (A) (A) (A) (A) (A) (A)
                 (A) (A) (A) (A) (A) (A) (A) (A) (A) (A) (A) (A)
                 (A) (A) (A) (A) (A) (A) (A) (A) (A) (A) (A) (A)
                 (A) (A) (A) (A) (A) (A) (A) (A) (A) (A) (A) (A)
                 (A) (A) (A) (A) (A) (A) (A) (A) (A) (A) (A) (A)
                 (A) (A) (A) (A) (A) (A) (A) (A) (A) (A) (A) (A)
                 (A) (A) (A) (A) (A) (A) (A) (A) (A) (A) (A) (A)
                 (A) (A) (A) (A) (A) (A) (A) (A) (A) (A) (A) (A)
                 (A) (A) (A) (A) (A) (A) (A) (A) (A) (A) (A) (A)
                 (A) (A) (A) (A) (A) (A) (A) (A) (A) (A) (A) (A)
                 (A) (A) (A) (A) (A) (A) (A) (A) (A) (A) (A) (A)
                 (A) (A) (A) (A) (A) (A) (A) (A) (A) (A) (A) (A)
                 (A) (A) (A) (A) (A) (A) (A) (A) (A) (A) (A) (A)
                 (A) (A) (A) (A) (A) (A) (A) (A) (A) (A) (A) (A)
                 (A) (A) (A) (A) (A) (A) (A) (A) (A) (A) (A) (A)
                 (A) (A) (A) (A) (A) (A) (A) (A) (A) (A) (A) (A)
                 (A) (A) (A) (A) (A) (A) (A) (A) (A) (A) (A) (A)
                 (A) (A) (A) (A) (A) (A) (A) (A) (A) (A) (A) (A)
                 (A) (A) (A) (A) (A) (A) (A) (A) (A) (A) (A) (A)
                 (A) (A) (A) (A) (A) (A) (A) (A) (A) (A) (A) (A)
                 (A) (A) (A) (A) (A) (A) (A) (A) (A) (A) (A) (A)
                 (A) (A) (A) (A) (A) (A) (A) (A) (A) (A) (A) (A)
                 (A) (A) (A) (A) (A) (A) (A) (A) (A) (A) (A) (A)
                 (A) (A) (A) (A) (A) (A) (A) (A) (A) (A) (A) (A)
                 (A) (A) (A) (A) (A) (A) (A) (A) (A) (A) (A) (A)
                 (A) (A) (A) (A) (A) (A) (A) (A) (A) (A) (A) (A)
                 (A) (A) (A) (A) (A) (A) (A) (A) (A) (A) (A) (A)
                 (A) (A) (A) (A) (A) (A) (A) (A) (A) (A) (A) (A)
                 (A) (A) (A) (A) (A) (A) (A) (A) (A) (A) (A) (A)
                 (A) (A) (A) (A) (A) (A) (A) (A) (A) (A) (A) (A)
                 (A) (A) (A) (A) (A) (A) (A) (A) (A) (A) (A) (A)
                 (A) (A) (A) (A) (A) (A) (A) (A) (A) (A) (A) (A)
                 (A) (A) (A) (A) (A) (A) (A) (A) (A) (A) (A) (A)
                 (A) (A) (A) (A) (A) (A) (A) (A) (A) (A) (A) (A)
                 (A) (A) (A) (A) (A) (A) (A) (A) (A) (A) (A) (A)
                 (A) (A) (A) (A) (A) (A) (A) (A) (A) (A) (A) (A)
                 (A) (A) (A) (A) (A) (A) (A) (A) (A) (A) (A) (A)
                 (A) (A) (A) (A) (A) (A) (A) (A) (A) (A) (A) (A)
                 (A) (A) (A) (A) (A) (A) (A) (A) (A) (A) (A) (A)
                 (A) (A) (A) (A) (A) (A) (A) (A) (A) (A) (A) (A)
                 (A) (A) (A) (A) (A) (A) (A) (A) (A) (A) (A) (A)
                 (A) (A) (A) (A) (A) (A) (A) (A) (A) (A) (A) (A)
                 (A) (A) (A) (A) (A) (A) (A) (A) (A) (A) (A) (A)
                 (A) (A) (A) (A) (A) (A) (A) (A) (A) (A) (A) (A)
                 (A) (A)
 The electronic state is 1-A.
 Alpha  occ. eigenvalues --  -19.17723 -19.14913 -19.14164 -19.10761 -19.10607
 Alpha  occ. eigenvalues --  -10.26789 -10.26758 -10.25884 -10.25678 -10.25479
 Alpha  occ. eigenvalues --  -10.25440 -10.24275 -10.20992 -10.19960 -10.19906
 Alpha  occ. eigenvalues --  -10.19617 -10.18849 -10.18696 -10.18656 -10.18529
 Alpha  occ. eigenvalues --  -10.18163 -10.17979 -10.17662 -10.17606 -10.17293
 Alpha  occ. eigenvalues --  -10.17164 -10.17017 -10.16715 -10.16464 -10.15019
 Alpha  occ. eigenvalues --  -10.14486  -1.10369  -1.07216  -1.04339  -1.03914
 Alpha  occ. eigenvalues --   -1.03593  -0.87668  -0.84580  -0.83397  -0.82393
 Alpha  occ. eigenvalues --   -0.81143  -0.80193  -0.77599  -0.75146  -0.74100
 Alpha  occ. eigenvalues --   -0.72505  -0.71939  -0.70841  -0.70630  -0.68699
 Alpha  occ. eigenvalues --   -0.66431  -0.65089  -0.64069  -0.62430  -0.61538
 Alpha  occ. eigenvalues --   -0.60299  -0.59592  -0.58004  -0.55691  -0.54885
 Alpha  occ. eigenvalues --   -0.53765  -0.53096  -0.51732  -0.51416  -0.50415
 Alpha  occ. eigenvalues --   -0.48643  -0.48095  -0.47650  -0.47228  -0.46648
 Alpha  occ. eigenvalues --   -0.46079  -0.45606  -0.45463  -0.44842  -0.44683
 Alpha  occ. eigenvalues --   -0.44092  -0.44011  -0.42894  -0.42372  -0.42319
 Alpha  occ. eigenvalues --   -0.41686  -0.41646  -0.41401  -0.40915  -0.40290
 Alpha  occ. eigenvalues --   -0.40032  -0.39291  -0.39235  -0.38800  -0.38604
 Alpha  occ. eigenvalues --   -0.38355  -0.38274  -0.37934  -0.37659  -0.37554
 Alpha  occ. eigenvalues --   -0.37441  -0.36561  -0.36377  -0.36000  -0.35385
 Alpha  occ. eigenvalues --   -0.34841  -0.34524  -0.34305  -0.33784  -0.33253
 Alpha  occ. eigenvalues --   -0.32408  -0.32220  -0.31850  -0.29623  -0.28376
 Alpha  occ. eigenvalues --   -0.26847  -0.25881  -0.25389  -0.24510  -0.24053
 Alpha virt. eigenvalues --   -0.06213  -0.02721  -0.01592  -0.01013  -0.00311
 Alpha virt. eigenvalues --    0.00126   0.00298   0.01086   0.01464   0.01838
 Alpha virt. eigenvalues --    0.02104   0.02489   0.02839   0.03370   0.03556
 Alpha virt. eigenvalues --    0.03985   0.04045   0.04332   0.04338   0.04927
 Alpha virt. eigenvalues --    0.05132   0.05318   0.05829   0.06260   0.06295
 Alpha virt. eigenvalues --    0.06485   0.06839   0.07123   0.07334   0.07534
 Alpha virt. eigenvalues --    0.07777   0.07978   0.08308   0.08325   0.08846
 Alpha virt. eigenvalues --    0.08925   0.09197   0.09290   0.09617   0.10154
 Alpha virt. eigenvalues --    0.10273   0.10454   0.10625   0.10769   0.11250
 Alpha virt. eigenvalues --    0.11432   0.11597   0.12096   0.12214   0.12378
 Alpha virt. eigenvalues --    0.12558   0.12791   0.13133   0.13282   0.13440
 Alpha virt. eigenvalues --    0.13588   0.13979   0.14500   0.14636   0.14863
 Alpha virt. eigenvalues --    0.14985   0.15146   0.15600   0.15734   0.15854
 Alpha virt. eigenvalues --    0.16367   0.16408   0.16803   0.17017   0.17099
 Alpha virt. eigenvalues --    0.17515   0.17803   0.17911   0.18104   0.18193
 Alpha virt. eigenvalues --    0.18396   0.18443   0.18754   0.18866   0.18969
 Alpha virt. eigenvalues --    0.19141   0.19403   0.19711   0.19782   0.20011
 Alpha virt. eigenvalues --    0.20073   0.20536   0.20834   0.20906   0.21094
 Alpha virt. eigenvalues --    0.21314   0.21608   0.21835   0.21923   0.22028
 Alpha virt. eigenvalues --    0.22300   0.22332   0.22635   0.22693   0.23030
 Alpha virt. eigenvalues --    0.23235   0.23541   0.23777   0.23959   0.24086
 Alpha virt. eigenvalues --    0.24307   0.24519   0.24589   0.24762   0.24838
 Alpha virt. eigenvalues --    0.25160   0.25405   0.25515   0.25725   0.25802
 Alpha virt. eigenvalues --    0.26260   0.26376   0.26561   0.26686   0.26866
 Alpha virt. eigenvalues --    0.27339   0.27476   0.27547   0.27978   0.28165
 Alpha virt. eigenvalues --    0.28447   0.28557   0.28812   0.28978   0.29280
 Alpha virt. eigenvalues --    0.29512   0.30241   0.30517   0.30666   0.30838
 Alpha virt. eigenvalues --    0.31047   0.31094   0.31673   0.31912   0.31968
 Alpha virt. eigenvalues --    0.32379   0.32822   0.32876   0.33106   0.33501
 Alpha virt. eigenvalues --    0.33792   0.34375   0.34734   0.35295   0.35596
 Alpha virt. eigenvalues --    0.35699   0.36395   0.36829   0.37019   0.37187
 Alpha virt. eigenvalues --    0.37512   0.37615   0.37898   0.38157   0.38647
 Alpha virt. eigenvalues --    0.38937   0.39128   0.39661   0.40257   0.40729
 Alpha virt. eigenvalues --    0.40942   0.41203   0.41307   0.41964   0.42168
 Alpha virt. eigenvalues --    0.42881   0.43014   0.43314   0.43543   0.43583
 Alpha virt. eigenvalues --    0.44302   0.44685   0.44844   0.45329   0.45586
 Alpha virt. eigenvalues --    0.45981   0.46542   0.46792   0.47386   0.47469
 Alpha virt. eigenvalues --    0.47863   0.48037   0.48436   0.49139   0.49522
 Alpha virt. eigenvalues --    0.49870   0.50558   0.50913   0.51001   0.51657
 Alpha virt. eigenvalues --    0.51791   0.52258   0.52748   0.53657   0.53895
 Alpha virt. eigenvalues --    0.54162   0.55491   0.55589   0.56022   0.56466
 Alpha virt. eigenvalues --    0.56947   0.57241   0.57571   0.58221   0.58261
 Alpha virt. eigenvalues --    0.58716   0.58868   0.59442   0.59825   0.60328
 Alpha virt. eigenvalues --    0.60364   0.60761   0.61822   0.62082   0.62247
 Alpha virt. eigenvalues --    0.62863   0.63298   0.63579   0.63838   0.64185
 Alpha virt. eigenvalues --    0.64977   0.65263   0.65411   0.65528   0.66079
 Alpha virt. eigenvalues --    0.66513   0.66685   0.67220   0.67532   0.67661
 Alpha virt. eigenvalues --    0.67899   0.68514   0.68546   0.68794   0.69073
 Alpha virt. eigenvalues --    0.69550   0.69890   0.70048   0.70422   0.70816
 Alpha virt. eigenvalues --    0.70960   0.71326   0.71688   0.71773   0.72162
 Alpha virt. eigenvalues --    0.72431   0.72686   0.72935   0.73089   0.73324
 Alpha virt. eigenvalues --    0.73607   0.74351   0.74651   0.75085   0.75400
 Alpha virt. eigenvalues --    0.75635   0.75780   0.76341   0.76731   0.77147
 Alpha virt. eigenvalues --    0.77346   0.78019   0.78378   0.78955   0.79404
 Alpha virt. eigenvalues --    0.79696   0.79994   0.80372   0.80937   0.81042
 Alpha virt. eigenvalues --    0.81246   0.81766   0.82362   0.82634   0.82931
 Alpha virt. eigenvalues --    0.83809   0.83912   0.84719   0.85240   0.85635
 Alpha virt. eigenvalues --    0.86240   0.86767   0.87783   0.87948   0.88297
 Alpha virt. eigenvalues --    0.89572   0.90084   0.91449   0.92116   0.92905
 Alpha virt. eigenvalues --    0.94034   0.94346   0.95192   0.95826   0.96396
 Alpha virt. eigenvalues --    0.96999   0.98487   0.99944   1.00659   1.01494
 Alpha virt. eigenvalues --    1.02314   1.02738   1.03445   1.04307   1.06415
 Alpha virt. eigenvalues --    1.07090   1.07319   1.07551   1.08663   1.09987
 Alpha virt. eigenvalues --    1.11238   1.12060   1.13667   1.14287   1.15593
 Alpha virt. eigenvalues --    1.16476   1.16940   1.17519   1.18091   1.19090
 Alpha virt. eigenvalues --    1.20388   1.21148   1.21807   1.22265   1.24008
 Alpha virt. eigenvalues --    1.24490   1.25064   1.25794   1.26557   1.26797
 Alpha virt. eigenvalues --    1.27666   1.28882   1.30000   1.30480   1.31741
 Alpha virt. eigenvalues --    1.32831   1.33437   1.33944   1.34706   1.35591
 Alpha virt. eigenvalues --    1.36551   1.36978   1.37828   1.38782   1.39202
 Alpha virt. eigenvalues --    1.40070   1.41162   1.42822   1.43281   1.43556
 Alpha virt. eigenvalues --    1.44012   1.44508   1.46957   1.47889   1.48281
 Alpha virt. eigenvalues --    1.49181   1.49623   1.50321   1.51592   1.52002
 Alpha virt. eigenvalues --    1.52813   1.53923   1.54203   1.54841   1.56065
 Alpha virt. eigenvalues --    1.56523   1.56843   1.57266   1.58196   1.58256
 Alpha virt. eigenvalues --    1.58657   1.59291   1.59988   1.60393   1.61077
 Alpha virt. eigenvalues --    1.61277   1.61885   1.62336   1.62702   1.63034
 Alpha virt. eigenvalues --    1.63263   1.63954   1.64448   1.64686   1.65294
 Alpha virt. eigenvalues --    1.66279   1.66464   1.67052   1.67393   1.67784
 Alpha virt. eigenvalues --    1.68073   1.68590   1.69580   1.69969   1.71094
 Alpha virt. eigenvalues --    1.71219   1.71700   1.72248   1.72589   1.72953
 Alpha virt. eigenvalues --    1.73325   1.74461   1.75104   1.75695   1.76578
 Alpha virt. eigenvalues --    1.77522   1.77816   1.77951   1.78429   1.80207
 Alpha virt. eigenvalues --    1.80908   1.82409   1.82615   1.83436   1.84503
 Alpha virt. eigenvalues --    1.84863   1.85139   1.86728   1.86970   1.87311
 Alpha virt. eigenvalues --    1.87605   1.88279   1.89907   1.91273   1.91616
 Alpha virt. eigenvalues --    1.91849   1.92672   1.94574   1.95143   1.96792
 Alpha virt. eigenvalues --    1.97987   1.98366   2.00739   2.01634   2.02430
 Alpha virt. eigenvalues --    2.02930   2.03582   2.05372   2.05724   2.06426
 Alpha virt. eigenvalues --    2.06825   2.07461   2.08228   2.08691   2.09710
 Alpha virt. eigenvalues --    2.10617   2.12246   2.14266   2.15843   2.16734
 Alpha virt. eigenvalues --    2.17542   2.18980   2.20894   2.21198   2.21931
 Alpha virt. eigenvalues --    2.22290   2.23317   2.24334   2.26079   2.27139
 Alpha virt. eigenvalues --    2.28284   2.29526   2.30493   2.32922   2.33225
 Alpha virt. eigenvalues --    2.35187   2.35489   2.37225   2.39270   2.42866
 Alpha virt. eigenvalues --    2.44280   2.46637   2.48921   2.49818   2.50665
 Alpha virt. eigenvalues --    2.51960   2.52543   2.54584   2.54831   2.55288
 Alpha virt. eigenvalues --    2.55586   2.55685   2.56384   2.57166   2.57359
 Alpha virt. eigenvalues --    2.58740   2.59054   2.59928   2.60455   2.61068
 Alpha virt. eigenvalues --    2.62296   2.62937   2.64870   2.66160   2.66956
 Alpha virt. eigenvalues --    2.68404   2.69438   2.70010   2.70179   2.71211
 Alpha virt. eigenvalues --    2.72049   2.72516   2.73378   2.74533   2.75294
 Alpha virt. eigenvalues --    2.75632   2.76992   2.77736   2.83756   2.84257
 Alpha virt. eigenvalues --    2.85899   2.87193   2.88094   2.88797   2.89727
 Alpha virt. eigenvalues --    2.90653   2.91161   2.93327   2.93942   2.95502
 Alpha virt. eigenvalues --    2.96376   2.97521   2.98477   2.99102   2.99695
 Alpha virt. eigenvalues --    3.00115   3.00705   3.02291   3.03535   3.04401
 Alpha virt. eigenvalues --    3.05451   3.06185   3.07269   3.07679   3.08976
 Alpha virt. eigenvalues --    3.09322   3.11311   3.11618   3.13041   3.13743
 Alpha virt. eigenvalues --    3.14946   3.16488   3.16562   3.18050   3.18797
 Alpha virt. eigenvalues --    3.18951   3.19853   3.20549   3.21266   3.22454
 Alpha virt. eigenvalues --    3.22780   3.23812   3.24985   3.26111   3.26396
 Alpha virt. eigenvalues --    3.26911   3.27804   3.28866   3.29483   3.29569
 Alpha virt. eigenvalues --    3.30841   3.31680   3.32044   3.32535   3.34449
 Alpha virt. eigenvalues --    3.35379   3.37229   3.37916   3.39221   3.39645
 Alpha virt. eigenvalues --    3.40055   3.40079   3.41685   3.42044   3.45386
 Alpha virt. eigenvalues --    3.46631   3.47834   3.49874   3.50905   3.52815
 Alpha virt. eigenvalues --    3.55078   3.59218   3.61257   3.65937   3.73824
 Alpha virt. eigenvalues --    3.76412   3.80272   3.80866   3.87473   3.88712
 Alpha virt. eigenvalues --    3.88796   3.96127   3.98400   4.01237   4.02847
 Alpha virt. eigenvalues --    4.04703   4.07022   4.10302   4.10383   4.12223
 Alpha virt. eigenvalues --    4.16240   4.17608   4.18651   4.20668   4.22745
 Alpha virt. eigenvalues --    4.23745   4.25258   4.29513   4.32806   4.45593
 Alpha virt. eigenvalues --    4.61206   5.13050   5.16612   5.17861   5.21539
 Alpha virt. eigenvalues --    5.23909   5.27944   5.31557   5.33108   5.42584
 Alpha virt. eigenvalues --    5.43438   5.56895   5.66568   5.73548   5.78766
 Alpha virt. eigenvalues --    5.83497  23.45608  23.47384  23.51660  23.52302
 Alpha virt. eigenvalues --   23.62177  23.65343  23.66017  23.67245  23.68542
 Alpha virt. eigenvalues --   23.70682  23.73078  23.74668  23.76719  23.78422
 Alpha virt. eigenvalues --   23.78918  23.80138  23.82138  23.84212  23.86612
 Alpha virt. eigenvalues --   23.87046  23.88557  23.90050  23.96182  24.16457
 Alpha virt. eigenvalues --   24.19048  24.22526  49.98955  50.00545  50.01924
 Alpha virt. eigenvalues --   50.03210  50.06648
          Condensed to atoms (all electrons):
 Mulliken atomic charges:
              1
     1  C   -0.273998
     2  C    0.590378
     3  C   -0.207744
     4  C   -0.209324
     5  C    1.550502
     6  C   -1.090123
     7  C   -1.103250
     8  C    0.528414
     9  C    0.726063
    10  C   -0.944655
    11  C   -0.398633
    12  O   -0.164107
    13  C    0.415734
    14  C   -0.390583
    15  C   -0.941433
    16  O   -0.200593
    17  C   -0.330424
    18  C    0.582342
    19  O    0.150840
    20  C   -1.025932
    21  O    0.018927
    22  C   -0.927738
    23  C   -0.458849
    24  O    0.034033
    25  C    1.102099
    26  C   -1.160594
    27  C   -0.969393
    28  C   -0.829734
    29  C   -0.712218
    30  H    0.232160
    31  H    0.276910
    32  C   -1.106070
    33  H    0.204592
    34  H    0.256634
    35  H    0.279473
    36  H    0.287958
    37  H    0.246042
    38  H    0.226514
    39  H    0.262226
    40  H    0.236332
    41  H    0.266784
    42  H    0.264255
    43  H    0.281205
    44  H    0.263997
    45  H    0.266555
    46  H    0.278176
    47  H    0.223474
    48  H    0.286262
    49  H    0.281814
    50  H    0.262508
    51  H    0.227814
    52  H    0.215341
    53  H    0.265434
    54  H    0.251786
    55  H    0.313941
    56  H    0.259503
    57  H    0.271110
    58  H    0.264236
    59  H    0.255505
    60  H    0.255668
    61  H    0.258728
    62  C   -1.050541
    63  H    0.241695
    64  H    0.248654
    65  H    0.283318
 Sum of Mulliken atomic charges =   0.00000
 Mulliken charges with hydrogens summed into heavy atoms:
              1
     1  C   -0.069406
     2  C    0.590378
     3  C    0.069166
     4  C   -0.209324
     5  C    1.550502
     6  C   -0.554016
     7  C   -1.103250
     8  C    0.528414
     9  C    0.726063
    10  C   -0.944655
    11  C   -0.398633
    12  O   -0.164107
    13  C    0.703692
    14  C    0.081973
    15  C   -0.176090
    16  O   -0.200593
    17  C   -0.098264
    18  C    0.582342
    19  O    0.150840
    20  C   -0.480472
    21  O    0.282924
    22  C   -0.383006
    23  C   -0.235375
    24  O    0.034033
    25  C    1.102099
    26  C   -0.330011
    27  C   -0.526238
    28  C    0.001426
    29  C    0.082631
    32  C   -0.336169
    62  C   -0.276874
 Sum of Mulliken charges with hydrogens summed into heavy atoms =   0.00000
 Electronic spatial extent (au):  <R**2>=          11289.1848
 Charge=              0.0000 electrons
 Dipole moment (field-independent basis, Debye):
    X=              4.5262    Y=              2.0917    Z=             -2.3974  Tot=              5.5325
 Quadrupole moment (field-independent basis, Debye-Ang):
   XX=           -195.0411   YY=           -179.9370   ZZ=           -186.4826
   XY=             -0.6223   XZ=              6.3143   YZ=              0.6939
 Traceless Quadrupole moment (field-independent basis, Debye-Ang):
   XX=             -7.8876   YY=              7.2165   ZZ=              0.6710
   XY=             -0.6223   XZ=              6.3143   YZ=              0.6939
 Octapole moment (field-independent basis, Debye-Ang**2):
  XXX=             41.0397  YYY=             52.1518  ZZZ=             -8.1958  XYY=              6.1544
  XXY=            -45.3163  XXZ=            -24.5589  XZZ=             22.6213  YZZ=             14.2541
  YYZ=            -29.9524  XYZ=             13.7066
 Hexadecapole moment (field-independent basis, Debye-Ang**3):
 XXXX=          -7869.4459 YYYY=          -4356.4339 ZZZZ=          -3411.9874 XXXY=            -67.2635
 XXXZ=             46.7933 YYYX=             -4.6097 YYYZ=            -10.9956 ZZZX=            -31.7166
 ZZZY=              2.4912 XXYY=          -1929.4621 XXZZ=          -1848.0043 YYZZ=          -1284.5207
 XXYZ=             -4.4200 YYXZ=             -2.5623 ZZXY=            -47.4401
 N-N= 3.522628565684D+03 E-N=-1.027815671715D+04  KE= 1.381707534342D+03
 Calling FoFJK, ICntrl=      2127 FMM=T ISym2X=0 I1Cent= 0 IOpClX= 0 NMat=1 NMatS=1 NMatT=0.
 ***** Axes restored to original set *****
 -------------------------------------------------------------------
 Center     Atomic                   Forces (Hartrees/Bohr)
 Number     Number              X              Y              Z
 -------------------------------------------------------------------
      1        6           0.000254074    0.001806125   -0.001149974
      2        6           0.000374066   -0.001862943    0.001216067
      3        6          -0.000415304    0.000315580   -0.000212358
      4        6          -0.000428422    0.001334211    0.000647231
      5        6           0.000023925   -0.000451066    0.000038162
      6        6           0.000010583   -0.000134238   -0.000042078
      7        6          -0.001905166    0.001083858    0.001701659
      8        6          -0.003476365   -0.000292594   -0.000547327
      9        6           0.001325731    0.001812597    0.000593978
     10        6          -0.001726975   -0.005143537    0.002769538
     11        6          -0.003921935    0.005204693    0.001127701
     12        8           0.004737014   -0.006508961   -0.001256172
     13        6          -0.000216782    0.000447135    0.000169274
     14        6           0.000339794   -0.000293934   -0.000340612
     15        6           0.000168032    0.000090069   -0.000090834
     16        8           0.001275562    0.006218167   -0.004046434
     17        6           0.000442224    0.000177101   -0.000223030
     18        6           0.000231704    0.001385143   -0.001031645
     19        8           0.002808200   -0.003397313    0.002002010
     20        6          -0.000418128    0.000119834    0.000205978
     21        8           0.006041512    0.001642081    0.000498868
     22        6           0.000157219   -0.000525274   -0.000627614
     23        6           0.001068075   -0.001966369    0.000756486
     24        8           0.000282333   -0.000154482    0.000979399
     25        6           0.001249619   -0.000940344    0.000244230
     26        6          -0.000091231    0.000011521   -0.000149567
     27        6          -0.001268642    0.000762987   -0.000249861
     28        6           0.000287639    0.000136655    0.000387024
     29        6           0.000456565   -0.000358956    0.000084228
     30        1          -0.000943230   -0.000416474    0.000785313
     31        1          -0.001165746   -0.000258784    0.000754439
     32        6          -0.000069547    0.000401530   -0.000067052
     33        1          -0.000060254   -0.000048166   -0.000840395
     34        1          -0.001692839    0.000390061    0.000111294
     35        1           0.001431197    0.001171339   -0.000482159
     36        1          -0.000866650    0.000764256   -0.000704050
     37        1          -0.001462401   -0.000417113    0.000264566
     38        1           0.000865613    0.001220756    0.000073339
     39        1          -0.000443875   -0.000645083   -0.001472007
     40        1           0.000427916    0.001400316    0.000222465
     41        1           0.000483476   -0.001302463    0.001211516
     42        1          -0.000713082   -0.001399961    0.000075038
     43        1           0.001480232    0.000229857   -0.000756823
     44        1          -0.005057333   -0.001243648   -0.002074081
     45        1           0.000894418   -0.000099758    0.001392039
     46        1          -0.000274352    0.001248462   -0.000862020
     47        1          -0.000975976    0.000321645   -0.001433005
     48        1           0.001788577    0.000204326   -0.000267579
     49        1           0.000080591   -0.001670902    0.000393174
     50        1          -0.000995844    0.001035032    0.000867089
     51        1          -0.000445898    0.000487130    0.000739095
     52        1          -0.000405433    0.000023341   -0.000954916
     53        1           0.001628296    0.000001388    0.000079671
     54        1          -0.000764984   -0.001234060    0.000493089
     55        1          -0.001089206    0.001722501   -0.000310061
     56        1          -0.000939071   -0.000875444    0.000734422
     57        1           0.001538099    0.000239160    0.000595968
     58        1          -0.000185384    0.000121482   -0.001757665
     59        1           0.000000546    0.000431287   -0.001671019
     60        1          -0.001270236   -0.000800825    0.000523703
     61        1           0.001404764   -0.000898355    0.000576589
     62        6          -0.000125845    0.000076177    0.000244271
     63        1          -0.000293905    0.000778483    0.001324949
     64        1           0.001510487    0.000069821   -0.000798081
[...]
                 (A) (A) (A) (A) (A) (A) (A) (A) (A) (A) (A) (A)
                 (A) (A) (A) (A) (A) (A) (A) (A) (A) (A) (A) (A)
                 (A) (A) (A) (A) (A) (A) (A) (A) (A) (A) (A) (A)
                 (A) (A)
 The electronic state is 1-A.
 Alpha  occ. eigenvalues --  -19.17617 -19.14714 -19.14070 -19.10792 -19.10705
 Alpha  occ. eigenvalues --  -10.26610 -10.26556 -10.25876 -10.25727 -10.25407
 Alpha  occ. eigenvalues --  -10.25364 -10.24151 -10.20899 -10.19882 -10.19792
 Alpha  occ. eigenvalues --  -10.19463 -10.18699 -10.18581 -10.18498 -10.18363
 Alpha  occ. eigenvalues --  -10.18074 -10.17830 -10.17598 -10.17535 -10.17142
 Alpha  occ. eigenvalues --  -10.17015 -10.16964 -10.16813 -10.16479 -10.14964
 Alpha  occ. eigenvalues --  -10.14496  -1.10311  -1.06988  -1.04613  -1.03971
 Alpha  occ. eigenvalues --   -1.03857  -0.87677  -0.84616  -0.83433  -0.82425
 Alpha  occ. eigenvalues --   -0.81178  -0.80321  -0.77643  -0.75157  -0.74101
 Alpha  occ. eigenvalues --   -0.72543  -0.72077  -0.70894  -0.70702  -0.68710
 Alpha  occ. eigenvalues --   -0.66475  -0.65166  -0.64054  -0.62498  -0.61521
 Alpha  occ. eigenvalues --   -0.60349  -0.59667  -0.57994  -0.55811  -0.54967
 Alpha  occ. eigenvalues --   -0.53708  -0.53183  -0.51664  -0.51374  -0.50430
 Alpha  occ. eigenvalues --   -0.48677  -0.48147  -0.47714  -0.47271  -0.46639
 Alpha  occ. eigenvalues --   -0.46113  -0.45637  -0.45535  -0.44911  -0.44671
 Alpha  occ. eigenvalues --   -0.44101  -0.44055  -0.42926  -0.42380  -0.42332
 Alpha  occ. eigenvalues --   -0.41802  -0.41660  -0.41446  -0.40913  -0.40308
 Alpha  occ. eigenvalues --   -0.40034  -0.39300  -0.39228  -0.38771  -0.38643
 Alpha  occ. eigenvalues --   -0.38356  -0.38287  -0.38019  -0.37655  -0.37612
 Alpha  occ. eigenvalues --   -0.37457  -0.36685  -0.36493  -0.35968  -0.35449
 Alpha  occ. eigenvalues --   -0.34786  -0.34563  -0.34277  -0.33819  -0.33176
 Alpha  occ. eigenvalues --   -0.32433  -0.32250  -0.31936  -0.29535  -0.28300
 Alpha  occ. eigenvalues --   -0.26873  -0.25920  -0.25339  -0.24482  -0.24067
 Alpha virt. eigenvalues --   -0.05964  -0.02538  -0.01552  -0.00985  -0.00295
 Alpha virt. eigenvalues --    0.00137   0.00378   0.01098   0.01455   0.01858
 Alpha virt. eigenvalues --    0.02109   0.02461   0.02818   0.03354   0.03540
 Alpha virt. eigenvalues --    0.03977   0.04055   0.04261   0.04365   0.04853
 Alpha virt. eigenvalues --    0.05094   0.05337   0.05815   0.06281   0.06334
 Alpha virt. eigenvalues --    0.06526   0.06837   0.07127   0.07356   0.07551
 Alpha virt. eigenvalues --    0.07798   0.07875   0.08350   0.08384   0.08843
 Alpha virt. eigenvalues --    0.08930   0.09229   0.09333   0.09610   0.10205
 Alpha virt. eigenvalues --    0.10264   0.10556   0.10679   0.10740   0.11197
 Alpha virt. eigenvalues --    0.11436   0.11691   0.12025   0.12263   0.12360
 Alpha virt. eigenvalues --    0.12571   0.12844   0.13131   0.13300   0.13488
 Alpha virt. eigenvalues --    0.13665   0.13972   0.14509   0.14611   0.14943
 Alpha virt. eigenvalues --    0.15041   0.15164   0.15591   0.15747   0.15885
 Alpha virt. eigenvalues --    0.16342   0.16471   0.16772   0.17069   0.17284
 Alpha virt. eigenvalues --    0.17467   0.17828   0.17965   0.18072   0.18184
 Alpha virt. eigenvalues --    0.18358   0.18541   0.18818   0.18918   0.19027
 Alpha virt. eigenvalues --    0.19186   0.19338   0.19601   0.19796   0.20072
 Alpha virt. eigenvalues --    0.20208   0.20631   0.20848   0.20976   0.21154
 Alpha virt. eigenvalues --    0.21346   0.21727   0.21804   0.21901   0.22086
 Alpha virt. eigenvalues --    0.22306   0.22389   0.22602   0.22797   0.22998
 Alpha virt. eigenvalues --    0.23273   0.23438   0.23824   0.23963   0.24174
 Alpha virt. eigenvalues --    0.24388   0.24555   0.24629   0.24855   0.25017
 Alpha virt. eigenvalues --    0.25316   0.25495   0.25562   0.25762   0.25878
 Alpha virt. eigenvalues --    0.26281   0.26533   0.26617   0.26717   0.26936
 Alpha virt. eigenvalues --    0.27335   0.27523   0.27602   0.28063   0.28275
 Alpha virt. eigenvalues --    0.28334   0.28714   0.28885   0.28990   0.29032
 Alpha virt. eigenvalues --    0.29641   0.30115   0.30438   0.30780   0.30870
 Alpha virt. eigenvalues --    0.31101   0.31317   0.31705   0.31976   0.32109
 Alpha virt. eigenvalues --    0.32453   0.32829   0.32955   0.33184   0.33578
 Alpha virt. eigenvalues --    0.33897   0.34366   0.34720   0.35388   0.35606
 Alpha virt. eigenvalues --    0.35853   0.36330   0.36718   0.37016   0.37058
 Alpha virt. eigenvalues --    0.37391   0.37743   0.37882   0.38282   0.38651
 Alpha virt. eigenvalues --    0.38975   0.39102   0.39690   0.40380   0.40774
 Alpha virt. eigenvalues --    0.40886   0.41143   0.41740   0.42028   0.42210
 Alpha virt. eigenvalues --    0.43082   0.43226   0.43332   0.43683   0.44004
 Alpha virt. eigenvalues --    0.44223   0.44862   0.44914   0.45434   0.45634
 Alpha virt. eigenvalues --    0.46155   0.46759   0.47079   0.47279   0.47580
 Alpha virt. eigenvalues --    0.47970   0.48179   0.48578   0.49275   0.49583
 Alpha virt. eigenvalues --    0.49926   0.50524   0.50829   0.50878   0.51709
 Alpha virt. eigenvalues --    0.51860   0.52163   0.52819   0.53749   0.53842
 Alpha virt. eigenvalues --    0.54021   0.55597   0.55688   0.56047   0.56574
 Alpha virt. eigenvalues --    0.57014   0.57238   0.57707   0.58143   0.58390
 Alpha virt. eigenvalues --    0.58591   0.58991   0.59370   0.59941   0.60298
 Alpha virt. eigenvalues --    0.60606   0.60820   0.61935   0.62065   0.62252
 Alpha virt. eigenvalues --    0.62969   0.63355   0.63683   0.63965   0.64069
 Alpha virt. eigenvalues --    0.65029   0.65382   0.65536   0.65787   0.66163
 Alpha virt. eigenvalues --    0.66687   0.66918   0.67456   0.67566   0.67853
 Alpha virt. eigenvalues --    0.67914   0.68529   0.68690   0.68995   0.69225
 Alpha virt. eigenvalues --    0.69544   0.69892   0.69973   0.70479   0.70761
 Alpha virt. eigenvalues --    0.70885   0.71487   0.71775   0.71809   0.72132
 Alpha virt. eigenvalues --    0.72521   0.72727   0.73160   0.73221   0.73432
 Alpha virt. eigenvalues --    0.73913   0.74214   0.74685   0.75171   0.75589
 Alpha virt. eigenvalues --    0.75791   0.75983   0.76640   0.76878   0.76950
 Alpha virt. eigenvalues --    0.77424   0.78085   0.78614   0.79065   0.79298
 Alpha virt. eigenvalues --    0.79665   0.79963   0.80505   0.81015   0.81123
 Alpha virt. eigenvalues --    0.81233   0.81953   0.82294   0.82882   0.82924
 Alpha virt. eigenvalues --    0.83725   0.83861   0.84422   0.85359   0.85905
 Alpha virt. eigenvalues --    0.86306   0.86754   0.87741   0.88262   0.88492
 Alpha virt. eigenvalues --    0.89559   0.90196   0.91509   0.92047   0.92839
 Alpha virt. eigenvalues --    0.93937   0.94429   0.94854   0.95490   0.96540
 Alpha virt. eigenvalues --    0.96696   0.98362   0.99813   1.00703   1.01563
 Alpha virt. eigenvalues --    1.02251   1.03067   1.03425   1.04369   1.06297
 Alpha virt. eigenvalues --    1.06721   1.07446   1.07809   1.08347   1.09849
 Alpha virt. eigenvalues --    1.11086   1.12096   1.13420   1.14241   1.15758
 Alpha virt. eigenvalues --    1.16130   1.16654   1.17046   1.17809   1.19371
 Alpha virt. eigenvalues --    1.20035   1.21656   1.21921   1.22297   1.23885
 Alpha virt. eigenvalues --    1.24308   1.24760   1.25950   1.26670   1.27096
 Alpha virt. eigenvalues --    1.28008   1.29124   1.29921   1.30393   1.31335
 Alpha virt. eigenvalues --    1.32778   1.33132   1.34056   1.34533   1.36218
 Alpha virt. eigenvalues --    1.36661   1.37456   1.37830   1.38681   1.39813
 Alpha virt. eigenvalues --    1.40116   1.41079   1.42712   1.43092   1.43636
 Alpha virt. eigenvalues --    1.44402   1.44466   1.47390   1.48021   1.48333
 Alpha virt. eigenvalues --    1.49250   1.49722   1.50347   1.51700   1.52110
 Alpha virt. eigenvalues --    1.52833   1.53839   1.54304   1.54979   1.56551
 Alpha virt. eigenvalues --    1.56596   1.56691   1.57226   1.58068   1.58274
 Alpha virt. eigenvalues --    1.58814   1.59354   1.60061   1.60202   1.60952
 Alpha virt. eigenvalues --    1.61399   1.62029   1.62458   1.62713   1.63115
 Alpha virt. eigenvalues --    1.63345   1.64231   1.64436   1.64873   1.65253
 Alpha virt. eigenvalues --    1.66471   1.66489   1.67126   1.67307   1.67705
 Alpha virt. eigenvalues --    1.68343   1.68698   1.69598   1.69795   1.71119
 Alpha virt. eigenvalues --    1.71296   1.71700   1.72259   1.72658   1.73161
 Alpha virt. eigenvalues --    1.73484   1.74456   1.74915   1.75867   1.76592
 Alpha virt. eigenvalues --    1.77350   1.77920   1.78226   1.78708   1.80338
 Alpha virt. eigenvalues --    1.80942   1.82529   1.82843   1.83643   1.84640
 Alpha virt. eigenvalues --    1.85012   1.85358   1.86596   1.87180   1.87591
 Alpha virt. eigenvalues --    1.87625   1.87896   1.90222   1.90955   1.91943
 Alpha virt. eigenvalues --    1.92391   1.92887   1.94458   1.95273   1.96966
 Alpha virt. eigenvalues --    1.98191   1.98786   2.01375   2.01590   2.02562
 Alpha virt. eigenvalues --    2.02778   2.03611   2.05390   2.06138   2.06463
 Alpha virt. eigenvalues --    2.07326   2.07623   2.08266   2.08724   2.09907
 Alpha virt. eigenvalues --    2.10624   2.12802   2.14548   2.16163   2.16886
 Alpha virt. eigenvalues --    2.17479   2.19131   2.21018   2.21526   2.21790
 Alpha virt. eigenvalues --    2.22535   2.23429   2.24398   2.26355   2.27557
 Alpha virt. eigenvalues --    2.28701   2.30077   2.30734   2.33106   2.33407
 Alpha virt. eigenvalues --    2.35437   2.35873   2.37523   2.39432   2.43118
 Alpha virt. eigenvalues --    2.44463   2.46560   2.47938   2.49510   2.50468
 Alpha virt. eigenvalues --    2.52115   2.52655   2.54878   2.54976   2.55483
 Alpha virt. eigenvalues --    2.55733   2.55879   2.56524   2.57333   2.57702
 Alpha virt. eigenvalues --    2.58533   2.59095   2.59483   2.60351   2.61200
 Alpha virt. eigenvalues --    2.62302   2.63092   2.64859   2.66274   2.67193
 Alpha virt. eigenvalues --    2.68498   2.69510   2.69997   2.70579   2.71349
 Alpha virt. eigenvalues --    2.72182   2.72757   2.73764   2.74773   2.75440
 Alpha virt. eigenvalues --    2.75618   2.77359   2.77953   2.84087   2.84474
 Alpha virt. eigenvalues --    2.85763   2.87371   2.87925   2.88938   2.90104
 Alpha virt. eigenvalues --    2.90746   2.91266   2.93177   2.94373   2.95743
 Alpha virt. eigenvalues --    2.96479   2.97856   2.98664   2.99357   2.99765
 Alpha virt. eigenvalues --    3.00330   3.01154   3.02513   3.03766   3.04548
 Alpha virt. eigenvalues --    3.05835   3.06480   3.07682   3.08168   3.09343
 Alpha virt. eigenvalues --    3.09475   3.11649   3.11806   3.13379   3.14268
 Alpha virt. eigenvalues --    3.15266   3.16584   3.16743   3.18185   3.18917
 Alpha virt. eigenvalues --    3.19109   3.20216   3.20535   3.21551   3.22649
 Alpha virt. eigenvalues --    3.23184   3.24413   3.25427   3.26139   3.26537
 Alpha virt. eigenvalues --    3.27464   3.27987   3.29068   3.29856   3.29898
 Alpha virt. eigenvalues --    3.31410   3.31865   3.32479   3.33430   3.34713
 Alpha virt. eigenvalues --    3.35808   3.37553   3.38001   3.39589   3.39934
 Alpha virt. eigenvalues --    3.40267   3.40943   3.42086   3.42420   3.46012
 Alpha virt. eigenvalues --    3.47156   3.48215   3.50245   3.51333   3.53245
 Alpha virt. eigenvalues --    3.55364   3.59803   3.61355   3.66012   3.74524
 Alpha virt. eigenvalues --    3.77041   3.80665   3.81349   3.87714   3.88903
 Alpha virt. eigenvalues --    3.89219   3.96901   3.99032   4.01568   4.03140
 Alpha virt. eigenvalues --    4.04882   4.06862   4.10283   4.10546   4.12485
 Alpha virt. eigenvalues --    4.16573   4.17914   4.18845   4.20712   4.22681
 Alpha virt. eigenvalues --    4.24078   4.25361   4.28388   4.32927   4.46071
 Alpha virt. eigenvalues --    4.61792   5.13950   5.16761   5.17475   5.21615
 Alpha virt. eigenvalues --    5.23952   5.27862   5.31689   5.33491   5.42648
 Alpha virt. eigenvalues --    5.43531   5.57038   5.66860   5.73994   5.78780
 Alpha virt. eigenvalues --    5.84010  23.45469  23.47515  23.51492  23.52419
 Alpha virt. eigenvalues --   23.62148  23.65636  23.66114  23.67404  23.68677
 Alpha virt. eigenvalues --   23.71064  23.73187  23.74630  23.77084  23.78824
 Alpha virt. eigenvalues --   23.79332  23.80486  23.82432  23.84551  23.87058
 Alpha virt. eigenvalues --   23.87286  23.88940  23.90912  23.96904  24.18504
 Alpha virt. eigenvalues --   24.19914  24.23921  49.99208  50.00480  50.01952
 Alpha virt. eigenvalues --   50.03233  50.07269
          Condensed to atoms (all electrons):
 Mulliken atomic charges:
              1
     1  C   -0.273504
     2  C    0.597000
     3  C   -0.244913
     4  C   -0.261681
     5  C    1.632846
     6  C   -1.140508
     7  C   -1.081687
     8  C    0.550049
     9  C    0.785686
    10  C   -0.876035
    11  C   -0.427891
    12  O   -0.163460
    13  C    0.406242
    14  C   -0.389269
    15  C   -0.978175
    16  O   -0.204418
    17  C   -0.392559
    18  C    0.578368
    19  O    0.145277
    20  C   -1.014393
    21  O    0.020403
    22  C   -0.903701
    23  C   -0.434754
    24  O    0.035111
    25  C    1.074409
    26  C   -1.164383
    27  C   -0.974934
    28  C   -0.829231
    29  C   -0.702050
    30  H    0.232697
    31  H    0.278705
    32  C   -1.103077
    33  H    0.204170
    34  H    0.256966
    35  H    0.280155
    36  H    0.287127
    37  H    0.244506
    38  H    0.228869
    39  H    0.263972
    40  H    0.237912
    41  H    0.268144
    42  H    0.264368
    43  H    0.283940
    44  H    0.260439
    45  H    0.265728
    46  H    0.278445
    47  H    0.222048
    48  H    0.283812
    49  H    0.280147
    50  H    0.263468
    51  H    0.227986
    52  H    0.216449
    53  H    0.266095
    54  H    0.253694
    55  H    0.312825
    56  H    0.260343
    57  H    0.269852
    58  H    0.263704
    59  H    0.255960
    60  H    0.255516
    61  H    0.259333
    62  C   -1.064180
    63  H    0.243894
    64  H    0.249445
    65  H    0.278698
 Sum of Mulliken atomic charges =   0.00000
 Mulliken charges with hydrogens summed into heavy atoms:
              1
     1  C   -0.069335
     2  C    0.597000
     3  C    0.033793
     4  C   -0.261681
     5  C    1.632846
     6  C   -0.603388
     7  C   -1.081687
     8  C    0.550049
     9  C    0.785686
    10  C   -0.876035
    11  C   -0.427891
    12  O   -0.163460
    13  C    0.693369
    14  C    0.084106
    15  C   -0.208147
    16  O   -0.204418
    17  C   -0.159861
    18  C    0.578368
    19  O    0.145277
    20  C   -0.466086
    21  O    0.280843
    22  C   -0.359527
    23  C   -0.212706
    24  O    0.035111
    25  C    1.074409
    26  C   -0.336956
    27  C   -0.530499
    28  C    0.003382
    29  C    0.091849
    32  C   -0.332267
    62  C   -0.292143
 Sum of Mulliken charges with hydrogens summed into heavy atoms =   0.00000
 Electronic spatial extent (au):  <R**2>=          11311.6066
 Charge=              0.0000 electrons
 Dipole moment (field-independent basis, Debye):
    X=              4.3165    Y=              2.0772    Z=             -2.7334  Tot=              5.5153
 Quadrupole moment (field-independent basis, Debye-Ang):
   XX=           -193.7180   YY=           -179.4536   ZZ=           -187.4604
   XY=             -0.9847   XZ=              7.1607   YZ=              0.8769
 Traceless Quadrupole moment (field-independent basis, Debye-Ang):
   XX=             -6.8407   YY=              7.4238   ZZ=             -0.5831
   XY=             -0.9847   XZ=              7.1607   YZ=              0.8769
 Octapole moment (field-independent basis, Debye-Ang**2):
  XXX=             36.7154  YYY=             50.4662  ZZZ=            -11.5718  XYY=              3.7438
  XXY=            -44.1623  XXZ=            -25.7266  XZZ=             25.7565  YZZ=             14.0239
  YYZ=            -30.0887  XYZ=             15.0023
 Hexadecapole moment (field-independent basis, Debye-Ang**3):
 XXXX=          -7905.0094 YYYY=          -4303.5742 ZZZZ=          -3408.4591 XXXY=            -72.9875
 XXXZ=             49.8322 YYYX=             -1.3195 YYYZ=             -8.2229 ZZZX=            -23.5697
 ZZZY=              5.0070 XXYY=          -1934.1798 XXZZ=          -1868.8170 YYZZ=          -1277.6364
 XXYZ=             -2.7416 YYXZ=             -5.4407 ZZXY=            -45.6814
 N-N= 3.521548831066D+03 E-N=-1.027618324227D+04  KE= 1.381917927505D+03
 1\1\GINC-B0803\FOpt\RB3LYP\6-311+G(d)\C26H34O5\CAOFEI\13-Apr-2021\0\\#
  opt b3lyp/6-311+g(d) geom=connectivity\\Title Card Required\\0,1\C,1.
 637950375,0.613578775,3.1059523268\C,1.6508646228,1.75129621,2.4097850
 058\C,1.690362641,1.7538694742,0.8986542407\C,1.4790968397,0.376872738
 9,0.1903028508\C,1.143867067,-0.8724148304,1.0602743604\C,1.7075784635
 ,-0.7566132763,2.5013693334\C,0.4036226915,0.668435794,-0.8903276526\C
 ,-1.0125673475,0.4716762082,-0.3977445974\C,-1.3912274712,-0.467909552
 2,0.4981181774\C,-0.3583072024,-1.262475377,1.1673067926\C,-2.84871059
 34,-0.620773827,0.8966063358\O,-3.4452232198,0.3384661636,1.3381130708
 \C,-3.5020822159,-1.985002634,0.707384937\C,-3.4793262699,-2.410381705
 5,-0.7851457372\C,-4.8987537169,-2.0309696577,1.3296889324\O,-0.639879
 2188,-2.2210364297,1.8742818672\C,0.3692818827,2.1888412965,-1.1423009
 082\C,-1.0636119195,2.418901436,-1.6769244558\O,-1.8336728513,1.346162
 5422,-0.9801756895\C,0.6714591839,2.7407903319,0.2607499256\O,0.568605
 5599,-0.1327584256,-2.0466905626\C,1.9022096072,-2.0015658187,0.312661
 4935\C,3.1686500999,-1.2843460378,-0.1561394501\O,2.694762594,0.033151
 4165,-0.5342213264\C,3.9402141741,-1.935752683,-1.281652564\C,3.334583
 3629,-1.9710320112,-2.6611371868\C,5.1298756488,-2.4822875777,-1.02119
 16333\C,-1.1872178981,2.1864239349,-3.1817541165\C,-1.7198236716,3.735
 8753581,-1.2802632879\H,1.1247540453,2.4928021163,-1.8706629103\H,2.69
 46238224,2.0699225822,0.5890658382\C,1.6827120414,3.0979830304,3.08578
 62066\H,1.632346284,0.6604496511,4.1931591906\H,2.7554481306,-1.083710
 8416,2.507633372\H,1.1789223437,-1.4829312683,3.1214226205\H,-2.850156
 1989,-2.6886376639,1.2365403479\H,-2.4407959422,-2.4423963604,-1.13068
 717\H,-3.8430428735,-3.4428308502,-0.8367235001\H,-4.8557615855,-1.831
 1420134,2.4024267872\H,-5.3430800131,-3.020732112,1.1876393755\H,-5.56
 88370565,-1.2883321585,0.8935699777\H,1.0507165151,3.7639043892,0.2377
 470246\H,-0.2403729251,2.7523147604,0.8633695959\H,1.5284412567,-0.215
 1745539,-2.1618776746\H,1.323276395,-2.3631808737,-0.5397470239\H,2.11
 22943693,-2.84911762,0.966220772\H,3.8550632564,-1.1611390337,0.688506
 6223\H,2.3142708283,-2.3656490665,-2.6604918865\H,3.2983906168,-0.9676
 80942,-3.0999630392\H,3.9303250708,-2.5918064914,-3.3325582869\H,5.696
 1538315,-3.0087837048,-1.7829293808\H,5.580560891,-2.4302930404,-0.034
 7497557\H,-2.2398044476,2.1887615137,-3.4745651535\H,-0.684740559,2.99
 1745687,-3.7255390276\H,-0.7405320239,1.238074139,-3.4757172706\H,-1.1
 678294404,4.573574286,-1.7158170689\H,-2.7438443023,3.7740705524,-1.65
 77853201\H,-1.7574290945,3.8700215602,-0.1997073908\H,1.7317311056,2.9
 936303044,4.1714565323\H,2.5551253532,3.6806590416,2.7652042865\H,0.80
 00358579,3.7013272791,2.8502531655\C,-4.3020368104,-1.5301837306,-1.73
 16138974\H,-4.2112212708,-1.8875016827,-2.7615729179\H,-5.3650305728,-
 1.5385092148,-1.477720521\H,-3.967159116,-0.4892615065,-1.7140840011\\
 Version=EM64L-G09RevB.01\State=1-A\HF=-1387.6484222\RMSD=4.457e-09\RMS
 F=2.424e-06\Dipole=1.7157877,0.8150908,-1.0488485\Quadrupole=-5.242108
 5,5.5202641,-0.2781556,-0.7246761,5.254626,0.6412182\PG=C01 [X(C26H34O
 5)]\\@


 Mondays are the potholes in the road of life.
                                -- Tom Wilson
 Job cpu time:  1 days 16 hours 22 minutes 29.9 seconds.
 File lengths (MBytes):  RWF=    372 Int=      0 D2E=      0 Chk=     40 Scr=      1
 Normal termination of Gaussian 09 at Tue Apr 13 21:56:34 2021.
